
                                 *****************
                                 * O   R   C   A *
                                 *****************

                                            #,                                       
                                            ###                                      
                                            ####                                     
                                            #####                                    
                                            ######                                   
                                           ########,                                 
                                     ,,################,,,,,                         
                               ,,#################################,,                 
                          ,,##########################################,,             
                       ,#########################################, ''#####,          
                    ,#############################################,,   '####,        
                  ,##################################################,,,,####,       
                ,###########''''           ''''###############################       
              ,#####''   ,,,,##########,,,,          '''####'''          '####       
            ,##' ,,,,###########################,,,                        '##       
           ' ,,###''''                  '''############,,,                           
         ,,##''                                '''############,,,,        ,,,,,,###''
      ,#''                                            '''#######################'''  
     '                                                          ''''####''''         
             ,#######,   #######,   ,#######,      ##                                
            ,#'     '#,  ##    ##  ,#'     '#,    #''#        ,####,   ,####,        
            ##       ##  ##   ,#'  ##            #'  '#       #'       #'  '#        
            ##       ##  #######   ##           ,######,      #####,   #    #        
            '#,     ,#'  ##    ##  '#,     ,#' ,#      #,     #,   #   #,  ,#        
             '#######'   ##     ##  '#######'  #'      '#     '####' # '####'        



                #########################################################
                #                        -***-                          #
                #          Department of theory and spectroscopy        #
                #                                                       #
                #                      Frank Neese                      #
                #                                                       #
                #     Directorship, Architecture, Infrastructure        #
                #                    SHARK, DRIVERS                     #
                #        Core code/Algorithms in most modules           #
                #                                                       #
                #        Max Planck Institute fuer Kohlenforschung      #
                #                Kaiser Wilhelm Platz 1                 #
                #                 D-45470 Muelheim/Ruhr                 #
                #                      Germany                          #
                #                                                       #
                #                  All rights reserved                  #
                #                        -***-                          #
                #########################################################


                         Program Version 6.0.0  -   RELEASE  -


 With contributions from (in alphabetic order):
   Daniel Aravena         : Magnetic Suceptibility
   Michael Atanasov       : Ab Initio Ligand Field Theory (pilot matlab implementation)
   Alexander A. Auer      : GIAO ZORA, VPT2 properties, NMR spectrum
   Ute Becker             : All parallelization in ORCA, NUMFREQ, NUMCALC
   Giovanni Bistoni       : ED, misc. LED, open-shell LED, HFLD
   Martin Brehm           : Molecular dynamics
   Dmytro Bykov           : pre 5.0 version of the SCF Hessian
   Marcos Casanova-Páez   : Triplet and SCS-CIS(D). UHF-(DLPNO)-IP/EA/STEOM-CCSD. UHF-CVS-IP/STEOM-CCSD
   Vijay G. Chilkuri      : MRCI spin determinant printing, contributions to CSF-ICE
   Pauline Colinet        : FMM embedding
   Dipayan Datta          : RHF DLPNO-CCSD density
   Achintya Kumar Dutta   : EOM-CC, STEOM-CC
   Nicolas Foglia         : Exact transition moments, OPA infrastructure, MCD improvements
   Dmitry Ganyushin       : Spin-Orbit,Spin-Spin,Magnetic field MRCI
   Miquel Garcia          : C-PCM and meta-GGA Hessian, CCSD/C-PCM, Gaussian charge scheme
   Tiago L. C. Gouveia    : GS-ROHF, GS-ROCIS
   Yang Guo               : DLPNO-NEVPT2, F12-NEVPT2, CIM, IAO-localization
   Andreas Hansen         : Spin unrestricted coupled pair/coupled cluster methods
   Ingolf Harden          : AUTO-CI MPn and infrastructure 
   Benjamin Helmich-Paris : MC-RPA, TRAH-(SCF,CASSCF), AVAS, COSX integrals, SCF dyn. polar.
   Lee Huntington         : MR-EOM, pCC
   Robert Izsak           : Overlap fitted RIJCOSX, COSX-SCS-MP3, EOM
   Riya Kayal             : Wick's Theorem for AUTO-CI, AUTO-CI UHF-CCSDT
   Emily Kempfer          : AUTO-CI, RHF CISDT and CCSDT
   Christian Kollmar      : KDIIS, OOCD, Brueckner-CCSD(T), CCSD density, CASPT2, CASPT2-K, improved NEVPT2
   Axel Koslowski         : Symmetry handling
   Simone Kossmann        : Meta GGA functionals, TD-DFT gradient, OOMP2, (MP2 Hessian; deprecated post 5.0)
   Lucas Lang             : DCDCAS
   Marvin Lechner         : AUTO-CI (C++ implementation), FIC-MRCC
   Spencer Leger          : CASSCF response
   Dagmar Lenk            : GEPOL surface, SMD, ORCA-2-JSON
   Dimitrios Liakos       : Extrapolation schemes; Compound Job, initial MDCI parallelization
   Dimitrios Manganas     : Further ROCIS development; embedding schemes. LFT, Crystal Embedding
   Dimitrios Pantazis     : SARC Basis sets
   Anastasios Papadopoulos: AUTO-CI, single reference methods and gradients
   Taras Petrenko         : pre 6.0 DFT Hessian and TD-DFT gradient, (ASA, deprecated), ECA, 1-Electron XAS/XES, NRVS
   Peter Pinski           : DLPNO-MP2, DLPNO-MP2 Gradient
   Christoph Reimann      : Effective Core Potentials
   Marius Retegan         : Local ZFS, SOC
   Christoph Riplinger    : Optimizer, TS searches, QM/MM, DLPNO-CCSD(T), (RO)-DLPNO pert. Triples
   Michael Roemelt        : Original ROCIS implementation
   Masaaki Saitow         : Open-shell DLPNO-CCSD energy and density
   Barbara Sandhoefer     : DKH picture change effects
   Kantharuban Sivalingam : CASSCF convergence/infrastructure, NEVPT2 and variants, FIC-MRCI
   Bernardo de Souza      : ESD, SOC TD-DFT
   Georgi Stoychev        : AutoAux, RI-MP2 NMR, DLPNO-MP2 response, X2C
   Van Anh Tran           : RI-MP2 g-tensors
   Willem Van den Heuvel  : Paramagnetic NMR
   Zikuan Wang            : NOTCH, Electric field optimization 
   Frank Wennmohs         : Technical directorship and infrastructure
   Hang Xu                : AUTO-CI-Response properties 


 We gratefully acknowledge several colleagues who have allowed us to
 interface, adapt or use parts of their codes:
   Stefan Grimme, W. Hujo, H. Kruse, P. Pracht,  : VdW corrections, initial TS optimization,
                  C. Bannwarth, S. Ehlert,         DFT functionals, gCP, sTDA/sTD-DF
                  L. Wittmann, M. Mueller
   Ed Valeev, F. Pavosevic, A. Kumar             : LibInt (2-el integral package), F12 methods
   Garnet Chan, S. Sharma, J. Yang, R. Olivares  : DMRG
   Ulf Ekstrom                                   : XCFun DFT Library
   Mihaly Kallay                                 : mrcc  (arbitrary order and MRCC methods)
   Frank Weinhold                                : gennbo (NPA and NBO analysis)
   Simon Mueller                                 : openCOSMO-RS
   Christopher J. Cramer and Donald G. Truhlar   : smd solvation model
   Lars Goerigk                                  : TD-DFT with DH, B97 family of functionals
   V. Asgeirsson, H. Jonsson                     : NEB implementation
   FAccTs GmbH                                   : IRC, NEB, NEB-TS, DLPNO-Multilevel, CI-OPT
                                                   MM, QMMM, 2- and 3-layer-ONIOM, Crystal-QMMM,
                                                   LR-CPCM, SF, NACMEs, symmetry and pop. for TD-DFT,
                                                   nearIR, NL-DFT gradient (VV10), updates on ESD,
                                                   ML-optimized integration grids, MBIS, APM,
                                                   GOAT, DOCKER, SOLVATOR, interface openCOSMO-RS
   S Lehtola, MJT Oliveira, MAL Marques          : LibXC Library
   Liviu Ungur et al                             : ANISO software


 Your calculation uses the libint2 library for the computation of 2-el integrals
 For citations please refer to: http://libint.valeyev.net

 Your ORCA version has been built with support for libXC version: 6.2.2
 For citations please refer to: https://libxc.gitlab.io

 This ORCA versions uses:
   CBLAS   interface :  Fast vector & matrix operations
   LAPACKE interface :  Fast linear algebra routines
   SCALAPACK package :  Parallel linear algebra routines
   Shared memory     :  Shared parallel matrices
   BLAS/LAPACK       :  OpenBLAS 0.3.27  USE64BITINT DYNAMIC_ARCH NO_AFFINITY SkylakeX SINGLE_THREADED
        Core in use  :  SkylakeX
   Copyright (c) 2011-2014, The OpenBLAS Project


NOTE: MaxCore=9000 MB was set to SCF,MP2,MDCI,CIPSI,MRCI and CIS
      => If you want to overwrite this, your respective input block should be placed after the MaxCore statement
Your calculation utilizes the atom-pairwise dispersion correction
based on EEQ partial charges (D4)


Warning: RI is on but no J-basis has been assigned. Assigning Def2/J (nothing to worry about!)
================================================================================

----- Orbital basis set information -----
Your calculation utilizes the basis: def2-TZVP
   F. Weigend and R. Ahlrichs, Phys. Chem. Chem. Phys. 7, 3297 (2005).

----- AuxJ basis set information -----
Your calculation utilizes the auxiliary basis: def2/J
   F. Weigend, Phys. Chem. Chem. Phys. 8, 1057 (2006).

================================================================================
                                        WARNINGS
                       Please study these warnings very carefully!
================================================================================

WARNING: Old DensityContainer found on disk!
         Will remove this file - 
         If you want to keep old densities, please start your calculation with a different basename. 


================================================================================
                                       INPUT FILE
================================================================================
NAME = Opt_15H2O_0.inp
|  1> ! B3LYP D4 def2-TZVP VeryTightSCF Freq
|  2> 
|  3> 
|  4> %pal
|  5>    nprocs 8
|  6> end
|  7> 
|  8> %freq
|  9>    Temp 300.0
| 10> 
| 11> end
| 12> 
| 13> %maxcore 9000
| 14> 
| 15> %geom
| 16>    MaxIter 600
| 17> end
| 18> 
| 19> * xyz 0 1
| 20> O       -3.311088000      5.913209000     -0.307027000
| 21> H       -3.289426000      5.045206000     -0.759691000
| 22> H       -4.007511000      5.808474000      0.364194000
| 23> O       -5.710068000      2.269588000      1.253059000
| 24> H       -4.784719000      2.073208000      1.456822000
| 25> H       -5.969597000      1.637674000      0.555301000
| 26> O       -2.717454000      3.313655000     -0.976146000
| 27> H       -1.794758000      3.392081000     -1.280684000
| 28> H       -3.106340000      2.509293000     -1.417799000
| 29> O       -0.709287000      6.006511000      0.240315000
| 30> H       -0.386488000      6.912881000      0.226048000
| 31> H       -1.701092000      6.052406000      0.121012000
| 32> O        0.565925000      1.875248000      0.548543000
| 33> H        0.556786000      2.538130000      1.274441000
| 34> H        0.434335000      2.428942000     -0.241355000
| 35> O       -3.681344000      1.071316000     -1.999342000
| 36> H       -3.148664000      0.371291000     -1.568054000
| 37> H       -4.599727000      0.885773000     -1.737008000
| 38> O       -5.168148000      4.881504000      1.628707000
| 39> H       -5.581595000      4.019437000      1.381633000
| 40> H       -5.736350000      5.281889000      2.293723000
| 41> O       -2.897237000      3.160601000      1.731636000
| 42> H       -2.811469000      3.214604000      0.745874000
| 43> H       -3.528778000      3.858659000      1.976366000
| 44> O       -0.020535000      3.915485000     -1.374772000
| 45> H        0.388774000      4.128705000     -2.218818000
| 46> H       -0.124318000      4.756365000     -0.871587000
| 47> O        0.487298000     -0.712482000     -0.603847000
| 48> H        0.669930000      0.118990000     -0.126694000
| 49> H        1.117012000     -1.355958000     -0.265141000
| 50> O       -2.325357000     -0.809772000     -0.417077000
| 51> H       -1.405132000     -1.021569000     -0.665860000
| 52> H       -2.211660000     -0.314062000      0.434344000
| 53> O       -6.111478000      0.285885000     -0.709993000
| 54> H       -5.709474000     -0.579543000     -0.436384000
| 55> H       -6.930755000      0.078384000     -1.170226000
| 56> O       -4.756341000     -1.952083000     -0.126833000
| 57> H       -3.809826000     -1.705030000     -0.257334000
| 58> H       -4.803856000     -2.406913000      0.719562000
| 59> O       -1.713169000      0.625986000      1.764532000
| 60> H       -0.907483000      1.013203000      1.371415000
| 61> H       -2.249730000      1.398096000      2.008291000
| 62> O       -0.167499000      3.938180000      2.247245000
| 63> H       -0.190640000      4.751199000      1.716604000
| 64> H       -1.103195000      3.668584000      2.286362000
| 65> *
| 66> 
| 67>                          ****END OF INPUT****
================================================================================

                       ****************************
                       * Single Point Calculation *
                       ****************************

---------------------------------
CARTESIAN COORDINATES (ANGSTROEM)
---------------------------------
  O     -3.311088    5.913209   -0.307027
  H     -3.289426    5.045206   -0.759691
  H     -4.007511    5.808474    0.364194
  O     -5.710068    2.269588    1.253059
  H     -4.784719    2.073208    1.456822
  H     -5.969597    1.637674    0.555301
  O     -2.717454    3.313655   -0.976146
  H     -1.794758    3.392081   -1.280684
  H     -3.106340    2.509293   -1.417799
  O     -0.709287    6.006511    0.240315
  H     -0.386488    6.912881    0.226048
  H     -1.701092    6.052406    0.121012
  O      0.565925    1.875248    0.548543
  H      0.556786    2.538130    1.274441
  H      0.434335    2.428942   -0.241355
  O     -3.681344    1.071316   -1.999342
  H     -3.148664    0.371291   -1.568054
  H     -4.599727    0.885773   -1.737008
  O     -5.168148    4.881504    1.628707
  H     -5.581595    4.019437    1.381633
  H     -5.736350    5.281889    2.293723
  O     -2.897237    3.160601    1.731636
  H     -2.811469    3.214604    0.745874
  H     -3.528778    3.858659    1.976366
  O     -0.020535    3.915485   -1.374772
  H      0.388774    4.128705   -2.218818
  H     -0.124318    4.756365   -0.871587
  O      0.487298   -0.712482   -0.603847
  H      0.669930    0.118990   -0.126694
  H      1.117012   -1.355958   -0.265141
  O     -2.325357   -0.809772   -0.417077
  H     -1.405132   -1.021569   -0.665860
  H     -2.211660   -0.314062    0.434344
  O     -6.111478    0.285885   -0.709993
  H     -5.709474   -0.579543   -0.436384
  H     -6.930755    0.078384   -1.170226
  O     -4.756341   -1.952083   -0.126833
  H     -3.809826   -1.705030   -0.257334
  H     -4.803856   -2.406913    0.719562
  O     -1.713169    0.625986    1.764532
  H     -0.907483    1.013203    1.371415
  H     -2.249730    1.398096    2.008291
  O     -0.167499    3.938180    2.247245
  H     -0.190640    4.751199    1.716604
  H     -1.103195    3.668584    2.286362

----------------------------
CARTESIAN COORDINATES (A.U.)
----------------------------
  NO LB      ZA    FRAG     MASS         X           Y           Z
   0 O     8.0000    0    15.999   -6.257050   11.174346   -0.580197
   1 H     1.0000    0     1.008   -6.216114    9.534058   -1.435608
   2 H     1.0000    0     1.008   -7.573098   10.976425    0.688227
   3 O     8.0000    0    15.999  -10.790465    4.288900    2.367938
   4 H     1.0000    0     1.008   -9.041809    3.917795    2.752995
   5 H     1.0000    0     1.008  -11.280903    3.094755    1.049367
   6 O     8.0000    0    15.999   -5.135244    6.261900   -1.844649
   7 H     1.0000    0     1.008   -3.391601    6.410104   -2.420142
   8 H     1.0000    0     1.008   -5.870132    4.741877   -2.679252
   9 O     8.0000    0    15.999   -1.340358   11.350661    0.454130
  10 H     1.0000    0     1.008   -0.730356   13.063452    0.427169
  11 H     1.0000    0     1.008   -3.214598   11.437390    0.228680
  12 O     8.0000    0    15.999    1.069443    3.543705    1.036596
  13 H     1.0000    0     1.008    1.052173    4.796371    2.408344
  14 H     1.0000    0     1.008    0.820774    4.590035   -0.456095
  15 O     8.0000    0    15.999   -6.956732    2.024494   -3.778209
  16 H     1.0000    0     1.008   -5.950113    0.701638   -2.963193
  17 H     1.0000    0     1.008   -8.692224    1.673868   -3.282469
  18 O     8.0000    0    15.999   -9.766384    9.224706    3.077810
  19 H     1.0000    0     1.008  -10.547686    7.595635    2.610908
  20 H     1.0000    0     1.008  -10.840131    9.981324    4.334508
  21 O     8.0000    0    15.999   -5.474984    5.972670    3.272318
  22 H     1.0000    0     1.008   -5.312906    6.074721    1.409498
  23 H     1.0000    0     1.008   -6.668424    7.291809    3.734790
  24 O     8.0000    0    15.999   -0.038806    7.399194   -2.597943
  25 H     1.0000    0     1.008    0.734676    7.802122   -4.192958
  26 H     1.0000    0     1.008   -0.234927    8.988227   -1.647061
  27 O     8.0000    0    15.999    0.920860   -1.346396   -1.141105
  28 H     1.0000    0     1.008    1.265984    0.224859   -0.239417
  29 H     1.0000    0     1.008    2.110847   -2.562389   -0.501044
  30 O     8.0000    0    15.999   -4.394288   -1.530247   -0.788161
  31 H     1.0000    0     1.008   -2.655315   -1.930486   -1.258293
  32 H     1.0000    0     1.008   -4.179432   -0.593491    0.820791
  33 O     8.0000    0    15.999  -11.549020    0.540244   -1.341692
  34 H     1.0000    0     1.008  -10.789342   -1.095178   -0.824646
  35 H     1.0000    0     1.008  -13.097229    0.148124   -2.211407
  36 O     8.0000    0    15.999   -8.988182   -3.688902   -0.239680
  37 H     1.0000    0     1.008   -7.199528   -3.222040   -0.486291
  38 H     1.0000    0     1.008   -9.077972   -4.548406    1.359775
  39 O     8.0000    0    15.999   -3.237420    1.182942    3.334482
  40 H     1.0000    0     1.008   -1.714894    1.914676    2.591599
  41 H     1.0000    0     1.008   -4.251374    2.642019    3.795120
  42 O     8.0000    0    15.999   -0.316527    7.442082    4.246678
  43 H     1.0000    0     1.008   -0.360257    8.978465    3.243911
  44 H     1.0000    0     1.008   -2.084736    6.932619    4.320598

--------------------------------
INTERNAL COORDINATES (ANGSTROEM)
--------------------------------
 O      0   0   0     0.000000000000     0.00000000     0.00000000
 H      1   0   0     0.979184940218     0.00000000     0.00000000
 H      1   2   0     0.972888506456   103.84813990     0.00000000
 O      3   1   2     4.026474319733   123.33985635     9.82333848
 H      4   3   1     0.967654502583    79.65935012    59.36814444
 H      4   3   1     0.976492105345   121.56071526   317.01421732
 O      2   1   3     1.836375125460   153.79689615   271.60135741
 H      7   2   1     0.974813797264   104.81976113   288.50051062
 H      7   2   1     0.996638309744   133.76523443   155.87992147
 O      1   2   3     2.660386620732    96.00200093   127.43261428
 H     10   1   2     0.962241819186   110.98123465   147.51282403
 H     10   1   2     1.000008357395     6.83583685   199.91653449
 O      8   7   2     3.349578778579   117.39037435   122.75923059
 H     13   8   7     0.983068651544    95.24081064   284.89338511
 H     13   8   7     0.973566548388    37.26121173   181.30520278
 O      9   7   2     1.654267122745   173.19914644   219.51995054
 H     16   9   7     0.979689911130   106.10290664   338.65756510
 H     16   9   7     0.972971051519   113.51994541    93.41705318
 O      3   1   2     1.950729287687   157.56087951    27.19638850
 H     19   3   1     0.987493542143   120.11606954   317.31223596
 H     19   3   1     0.961981258282   126.99647296   168.51045218
 O      5   4   3     2.195571581928   138.41203703    12.74007928
 H     22   5   4     0.990958724911    88.67545397   280.45994563
 H     22   5   4     0.972636509157    80.13948264    26.45073237
 O      8   7   2     1.852207211056   160.95934820    49.72196969
 H     25   8   7     0.961982471772   120.98237362   221.93486544
 H     25   8   7     0.985416272300    96.56395633   337.12827424
 O     13   8   7     2.833819237377    99.89748525    86.60731071
 H     28  13   8     0.975897084542    10.87491147   168.12214148
 H     28  13   8     0.961937024346   116.71140093   177.76006013
 O     17  16   9     1.843228765169   167.31766029    65.22679578
 H     31  17  16     0.976506528869   113.62889005   215.29142015
 H     31  17  16     0.991752555404   105.48666028   326.96820924
 O      6   4   3     1.856995591034   168.02890415    93.13501692
 H     34   6   4     0.992690648733   114.57478369    38.68209591
 H     34   6   4     0.962333560684   123.22088690   171.43457936
 O     35  34   6     1.699455909663   168.93882168   265.79328417
 H     37  35  34     0.986892264148   108.15778676    19.22291955
 H     37  35  34     0.962035602330   120.95633830   142.10225990
 O     33  31  17     1.703403544299   168.46222754   269.07678737
 H     40  33  31     0.976528500032    98.38999102     8.33417466
 H     40  33  31     0.971323843474   118.22880566   119.20995345
 O     14  13   8     1.852316491894   154.30171295    16.81631989
 H     43  14  13     0.971141220999   110.80102941   293.05335338
 H     43  14  13     0.974545610693   100.80198151    41.93788614

---------------------------
INTERNAL COORDINATES (A.U.)
---------------------------
 O      0   0   0     0.000000000000     0.00000000     0.00000000
 H      1   0   0     1.850391371471     0.00000000     0.00000000
 H      1   2   0     1.838492836042   103.84813990     0.00000000
 O      3   1   2     7.608933749562   123.33985635     9.82333848
 H      4   3   1     1.828602002138    79.65935012    59.36814444
 H      4   3   1     1.845302651038   121.56071526   317.01421732
 O      2   1   3     3.470246066266   153.79689615   271.60135741
 H      7   2   1     1.842131108397   104.81976113   288.50051062
 H      7   2   1     1.883373459990   133.76523443   155.87992147
 O      1   2   3     5.027402123531    96.00200093   127.43261428
 H     10   1   2     1.818373512867   110.98123465   147.51282403
 H     10   1   2     1.889741927108     6.83583685   199.91653449
 O      8   7   2     6.329786555509   117.39037435   122.75923059
 H     13   8   7     1.857730522262    95.24081064   284.89338511
 H     13   8   7     1.839774149600    37.26121173   181.30520278
 O      9   7   2     3.126111814337   173.19914644   219.51995054
 H     16   9   7     1.851345628200   106.10290664   338.65756510
 H     16   9   7     1.838648823604   113.51994541    93.41705318
 O      3   1   2     3.686344115147   157.56087951    27.19638850
 H     19   3   1     1.866092353666   120.11606954   317.31223596
 H     19   3   1     1.817881124117   126.99647296   168.51045218
 O      5   4   3     4.149028997264   138.41203703    12.74007928
 H     22   5   4     1.872640600101    88.67545397   280.45994563
 H     22   5   4     1.838016630160    80.13948264    26.45073237
 O      8   7   2     3.500164372171   160.95934820    49.72196969
 H     25   8   7     1.817883417282   120.98237362   221.93486544
 H     25   8   7     1.862166882557    96.56395633   337.12827424
 O     13   8   7     5.355142271680    99.89748525    86.60731071
 H     28  13   8     1.844178224676    10.87491147   168.12214148
 H     28  13   8     1.817797534093   116.71140093   177.76006013
 O     17  16   9     3.483197568336   167.31766029    65.22679578
 H     31  17  16     1.845329907548   113.62889005   215.29142015
 H     31  17  16     1.874140722330   105.48666028   326.96820924
 O      6   4   3     3.509213098953   168.02890415    93.13501692
 H     34   6   4     1.875913461809   114.57478369    38.68209591
 H     34   6   4     1.818546879174   123.22088690   171.43457936
 O     35  34   6     3.211506245938   168.93882168   265.79328417
 H     37  35  34     1.864956102925   108.15778676    19.22291955
 H     37  35  34     1.817983819485   120.95633830   142.10225990
 O     33  31  17     3.218966194275   168.46222754   269.07678737
 H     40  33  31     1.845371427029    98.38999102     8.33417466
 H     40  33  31     1.835536051515   118.22880566   119.20995345
 O     14  13   8     3.500370883025   154.30171295    16.81631989
 H     43  14  13     1.835190945050   110.80102941   293.05335338
 H     43  14  13     1.841624309225   100.80198151    41.93788614

---------------------
BASIS SET INFORMATION
---------------------
There are 2 groups of distinct atoms

 Group   1 Type O   : 11s6p2d1f contracted to 5s3p2d1f pattern {62111/411/11/1}
 Group   2 Type H   : 5s1p contracted to 3s1p pattern {311/1}

Atom   0O    basis set group =>   1
Atom   1H    basis set group =>   2
Atom   2H    basis set group =>   2
Atom   3O    basis set group =>   1
Atom   4H    basis set group =>   2
Atom   5H    basis set group =>   2
Atom   6O    basis set group =>   1
Atom   7H    basis set group =>   2
Atom   8H    basis set group =>   2
Atom   9O    basis set group =>   1
Atom  10H    basis set group =>   2
Atom  11H    basis set group =>   2
Atom  12O    basis set group =>   1
Atom  13H    basis set group =>   2
Atom  14H    basis set group =>   2
Atom  15O    basis set group =>   1
Atom  16H    basis set group =>   2
Atom  17H    basis set group =>   2
Atom  18O    basis set group =>   1
Atom  19H    basis set group =>   2
Atom  20H    basis set group =>   2
Atom  21O    basis set group =>   1
Atom  22H    basis set group =>   2
Atom  23H    basis set group =>   2
Atom  24O    basis set group =>   1
Atom  25H    basis set group =>   2
Atom  26H    basis set group =>   2
Atom  27O    basis set group =>   1
Atom  28H    basis set group =>   2
Atom  29H    basis set group =>   2
Atom  30O    basis set group =>   1
Atom  31H    basis set group =>   2
Atom  32H    basis set group =>   2
Atom  33O    basis set group =>   1
Atom  34H    basis set group =>   2
Atom  35H    basis set group =>   2
Atom  36O    basis set group =>   1
Atom  37H    basis set group =>   2
Atom  38H    basis set group =>   2
Atom  39O    basis set group =>   1
Atom  40H    basis set group =>   2
Atom  41H    basis set group =>   2
Atom  42O    basis set group =>   1
Atom  43H    basis set group =>   2
Atom  44H    basis set group =>   2
---------------------------------
AUXILIARY/J BASIS SET INFORMATION
---------------------------------
There are 2 groups of distinct atoms

 Group   1 Type O   : 12s5p4d2f1g contracted to 6s4p3d1f1g pattern {711111/2111/211/2/1}
 Group   2 Type H   : 5s2p1d contracted to 3s1p1d pattern {311/2/1}

Atom   0O    basis set group =>   1
Atom   1H    basis set group =>   2
Atom   2H    basis set group =>   2
Atom   3O    basis set group =>   1
Atom   4H    basis set group =>   2
Atom   5H    basis set group =>   2
Atom   6O    basis set group =>   1
Atom   7H    basis set group =>   2
Atom   8H    basis set group =>   2
Atom   9O    basis set group =>   1
Atom  10H    basis set group =>   2
Atom  11H    basis set group =>   2
Atom  12O    basis set group =>   1
Atom  13H    basis set group =>   2
Atom  14H    basis set group =>   2
Atom  15O    basis set group =>   1
Atom  16H    basis set group =>   2
Atom  17H    basis set group =>   2
Atom  18O    basis set group =>   1
Atom  19H    basis set group =>   2
Atom  20H    basis set group =>   2
Atom  21O    basis set group =>   1
Atom  22H    basis set group =>   2
Atom  23H    basis set group =>   2
Atom  24O    basis set group =>   1
Atom  25H    basis set group =>   2
Atom  26H    basis set group =>   2
Atom  27O    basis set group =>   1
Atom  28H    basis set group =>   2
Atom  29H    basis set group =>   2
Atom  30O    basis set group =>   1
Atom  31H    basis set group =>   2
Atom  32H    basis set group =>   2
Atom  33O    basis set group =>   1
Atom  34H    basis set group =>   2
Atom  35H    basis set group =>   2
Atom  36O    basis set group =>   1
Atom  37H    basis set group =>   2
Atom  38H    basis set group =>   2
Atom  39O    basis set group =>   1
Atom  40H    basis set group =>   2
Atom  41H    basis set group =>   2
Atom  42O    basis set group =>   1
Atom  43H    basis set group =>   2
Atom  44H    basis set group =>   2

Checking for AutoStart:
The File: Opt_15H2O_0.gbw exists
Trying to determine its content:
     ... Fine, the file contains calculation information
     ... Fine, the calculation information was read
     ... Fine, the file contains a basis set
     ... Fine, the basis set was read
     ... Fine, the file contains a geometry
     ... Fine, the geometry was read
     ... Fine, the file contains a set of orbitals
     ... Fine, the orbitals can be read
     => possible old guess file was deleted
     => GBW file was renamed to GES file
     => GES file is set as startup file
     => Guess is set to MORead
     ... now leaving AutoStart



           ************************************************************
           *        Program running with 8 parallel MPI-processes     *
           *              working on a common directory               *
           ************************************************************
------------------------------------------------------------------------------
                             ORCA STARTUP CALCULATIONS
                           -- RI-GTO INTEGRALS CHOSEN --
------------------------------------------------------------------------------
------------------------------------------------------------------------------
                   ___                                                        
                  /   \      - P O W E R E D   B Y -                         
                 /     \                                                     
                 |  |  |   _    _      __       _____    __    __             
                 |  |  |  | |  | |    /  \     |  _  \  |  |  /  |          
                  \  \/   | |  | |   /    \    | | | |  |  | /  /          
                 / \  \   | |__| |  /  /\  \   | |_| |  |  |/  /          
                |  |  |   |  __  | /  /__\  \  |    /   |      \           
                |  |  |   | |  | | |   __   |  |    \   |  |\   \          
                \     /   | |  | | |  |  |  |  | |\  \  |  | \   \       
                 \___/    |_|  |_| |__|  |__|  |_| \__\ |__|  \__/        
                                                                              
                      - O R C A' S   B I G   F R I E N D -                    
                                      &                                       
                       - I N T E G R A L  F E E D E R -                       
                                                                              
 v1 FN, 2020, v2 2021, v3 2022-2024                                           
------------------------------------------------------------------------------


----------------------
SHARK INTEGRAL PACKAGE
----------------------

Number of atoms                             ...     45
Number of basis functions                   ...    645
Number of shells                            ...    285
Maximum angular momentum                    ...      3
Integral batch strategy                     ... SHARK/LIBINT Hybrid
RI-J (if used) integral strategy            ... SPLIT-RIJ (Revised 2003 algorithm where possible)
Printlevel                                  ...      1
Contraction scheme used                     ... SEGMENTED contraction
Prescreening option                         ... SCHWARTZ
   Thresh                                   ... 1.000e-12
   Tcut                                     ... 1.000e-14
   Tpresel                                  ... 1.000e-14 
Coulomb Range Separation                    ... NOT USED
Exchange Range Separation                   ... NOT USED
Multipole approximations                    ... NOT USED
Finite Nucleus Model                        ... NOT USED
CABS basis                                  ... NOT available
Auxiliary Coulomb fitting basis             ... AVAILABLE
   # of basis functions in Aux-J            ...   1065
   # of shells in Aux-J                     ...    375
   Maximum angular momentum in Aux-J        ...      4
Auxiliary J/K fitting basis                 ... NOT available
Auxiliary Correlation fitting basis         ... NOT available
Auxiliary 'external' fitting basis          ... NOT available

Checking pre-screening integrals            ... done (  0.0 sec) Dimension = 285
Check shell pair data                       ... done (  0.0 sec)
Shell pair information
Shell pair cut-off parameter TPreSel        ...   1.0e-14
Total number of shell pairs                 ...     40755
Shell pairs after pre-screening             ...     28437
Total number of primitive shell pairs       ...    115860
Primitive shell pairs kept                  ...     53419
          la=0 lb=0:  10069 shell pairs
          la=1 lb=0:   9002 shell pairs
          la=1 lb=1:   2068 shell pairs
          la=2 lb=0:   3154 shell pairs
          la=2 lb=1:   1430 shell pairs
          la=2 lb=2:    249 shell pairs
          la=3 lb=0:   1531 shell pairs
          la=3 lb=1:    672 shell pairs
          la=3 lb=2:    208 shell pairs
          la=3 lb=3:     54 shell pairs

Calculating one electron integrals          ... done (  0.1 sec)
Calculating RI/J V-Matrix + Cholesky decomp.... done (  0.2 sec)
Calculating Nuclear repulsion               ... done (  0.0 sec) ENN=   1434.218796385007 Eh

Diagonalization of the overlap matrix:
Smallest eigenvalue                        ... 2.139e-03
Time for diagonalization                   ...    0.066 sec
Threshold for overlap eigenvalues          ... 1.000e-07
Number of eigenvalues below threshold      ... 0
Time for construction of square roots      ...    0.050 sec
Total time needed                          ...    0.157 sec

-------------------
DFT GRID GENERATION
-------------------

General Integration Accuracy     IntAcc      ... 4.388
Radial Grid Type                 RadialGrid  ... OptM3 with GC (2021)
Angular Grid (max. ang.)         AngularGrid ... 4 (Lebedev-302)
Angular grid pruning method      GridPruning ... 4 (adaptive)
Weight generation scheme         WeightScheme... mBecke (2022)
Basis function cutoff            BFCut       ... 1.0000e-12
Integration weight cutoff        WCut        ... 1.0000e-14
Partially contracted basis set               ... off
Rotationally invariant grid construction     ... off
Angular grids for H and He will be reduced by one unit

Total number of grid points                  ...   187119
Total number of batches                      ...     2948
Average number of points per batch           ...       63
Average number of grid points per atom       ...     4158

--------------------
COSX GRID GENERATION
--------------------

GRIDX 1
-------
General Integration Accuracy     IntAcc      ... 3.816
Radial Grid Type                 RadialGrid  ... OptM3 with GC (2021)
Angular Grid (max. ang.)         AngularGrid ... 1 (Lebedev-50)
Angular grid pruning method      GridPruning ... 4 (adaptive)
Weight generation scheme         WeightScheme... mBecke (2022)
Basis function cutoff            BFCut       ... 1.0000e-12
Integration weight cutoff        WCut        ... 1.0000e-14
Partially contracted basis set               ... on
Rotationally invariant grid construction     ... off
Angular grids for H and He will be reduced by one unit

Total number of grid points                  ...    23862
Total number of batches                      ...      202
Average number of points per batch           ...      118
Average number of grid points per atom       ...      530
UseSFitting                                  ... on

GRIDX 2
-------
General Integration Accuracy     IntAcc      ... 4.020
Radial Grid Type                 RadialGrid  ... OptM3 with GC (2021)
Angular Grid (max. ang.)         AngularGrid ... 2 (Lebedev-110)
Angular grid pruning method      GridPruning ... 4 (adaptive)
Weight generation scheme         WeightScheme... mBecke (2022)
Basis function cutoff            BFCut       ... 1.0000e-12
Integration weight cutoff        WCut        ... 1.0000e-14
Partially contracted basis set               ... on
Rotationally invariant grid construction     ... off
Angular grids for H and He will be reduced by one unit

Total number of grid points                  ...    49333
Total number of batches                      ...      405
Average number of points per batch           ...      121
Average number of grid points per atom       ...     1096
UseSFitting                                  ... on

GRIDX 3
-------
General Integration Accuracy     IntAcc      ... 4.338
Radial Grid Type                 RadialGrid  ... OptM3 with GC (2021)
Angular Grid (max. ang.)         AngularGrid ... 3 (Lebedev-194)
Angular grid pruning method      GridPruning ... 4 (adaptive)
Weight generation scheme         WeightScheme... mBecke (2022)
Basis function cutoff            BFCut       ... 1.0000e-12
Integration weight cutoff        WCut        ... 1.0000e-14
Partially contracted basis set               ... on
Rotationally invariant grid construction     ... off
Angular grids for H and He will be reduced by one unit

Total number of grid points                  ...   106957
Total number of batches                      ...      861
Average number of points per batch           ...      124
Average number of grid points per atom       ...     2377
UseSFitting                                  ... on
Initializing property integral containers    ... done (  0.1 sec)

SHARK setup successfully completed in  19.3 seconds

Maximum memory used throughout the entire STARTUP-calculation: 65.9 MB


           ************************************************************
           *        Program running with 8 parallel MPI-processes     *
           *              working on a common directory               *
           ************************************************************
-------------------------------------------------------------------------------
                                 ORCA GUESS
                   Start orbitals & Density for SCF / CASSCF
-------------------------------------------------------------------------------

------------
SCF SETTINGS
------------
Hamiltonian:
 Density Functional     Method          .... DFT(GTOs)
 Exchange Functional    Exchange        .... B88
   X-Alpha parameter    XAlpha          ....  0.666667
   Becke's b parameter  XBeta           ....  0.004200
 Correlation Functional Correlation     .... LYP
 LDA part of GGA corr.  LDAOpt          .... VWN-5
 Gradients option       PostSCFGGA      .... off
 Hybrid DFT is turned on
   Fraction HF Exchange ScalHFX         ....  0.200000
   Scaling of DF-GGA-X  ScalDFX         ....  0.720000
   Scaling of DF-GGA-C  ScalDFC         ....  0.810000
   Scaling of DF-LDA-C  ScalLDAC        ....  1.000000
   Perturbative correction              ....  0.000000
   NL short-range parameter             ....  4.800000
 RI-approximation to the Coulomb term is turned on
   Number of AuxJ basis functions       .... 1065
   RIJ-COSX (HFX calculated with COS-X)).... on


General Settings:
 Integral files         IntName         .... Opt_15H2O_0
 Hartree-Fock type      HFTyp           .... RHF
 Total Charge           Charge          ....    0
 Multiplicity           Mult            ....    1
 Number of Electrons    NEL             ....  150
 Basis Dimension        Dim             ....  645
 Nuclear Repulsion      ENuc            ....   1434.2187963850 Eh

Convergence Acceleration:
 AO-DIIS                CNVDIIS         .... on
   Start iteration      DIISMaxIt       ....    12
   Startup error        DIISStart       ....  0.200000
   # of expansion vecs  DIISMaxEq       ....     5
   Bias factor          DIISBfac        ....   1.050
   Max. coefficient     DIISMaxC        ....  10.000
 MO-DIIS                CNVKDIIS        .... off
 Trust-Rad. Augm. Hess. CNVTRAH         .... auto
   Auto Start mean grad. ratio tolernc. ....  1.125000
   Auto Start start iteration           ....     1
   Auto Start num. interpolation iter.  ....    10
   Max. Number of Micro iterations      ....    24
   Max. Number of Macro iterations      .... Maxiter - #DIIS iter
   Number of Davidson start vectors     ....     2
   Converg. threshold    (grad. norm)   ....   2.000e-06
   Grad. Scal. Fac. for Micro threshold ....   0.100
   Minimum threshold for Micro iter.    ....   1.000e-02
   NR start threshold (gradient norm)   ....   1.000e-04
   Initial trust radius                 ....   0.400
   Minimum AH scaling param. (alpha)    ....   1.000
   Maximum AH scaling param. (alpha)    .... 1000.000
   Quad. conv. algorithm                .... NR
   White noise on init. David. guess    .... on
   Maximum white noise                  ....   0.010
   Pseudo random numbers                .... off
   Inactive MOs                         .... canonical
   Orbital update algorithm             .... Taylor
   Preconditioner                       .... Diag
   Full preconditioner red. dimension   ....   250
 SOSCF                  CNVSOSCF        .... on
   Start iteration      SOSCFMaxIt      ....   150
   Startup grad/error   SOSCFStart      ....  0.003300
   Hessian update       SOSCFHessUp     .... L-BFGS
 Level Shifting         CNVShift        .... on
   Level shift para.    LevelShift      ....    0.2500
   Turn off err/grad.   ShiftErr        ....    0.0010
 Zerner damping         CNVZerner       .... off
 Static damping         CNVDamp         .... on
   Fraction old density DampFac         ....    0.7000
   Max. Damping (<1)    DampMax         ....    0.9800
   Min. Damping (>=0)   DampMin         ....    0.0000
   Turn off err/grad.   DampErr         ....    0.1000

SCF Procedure:
 Maximum # iterations   MaxIter         ....   125
 SCF integral mode      SCFMode         .... Direct
   Integral package                     .... SHARK and LIBINT hybrid scheme
 Reset frequency        DirectResetFreq ....    20
 Integral Threshold     Thresh          ....  1.000e-12 Eh
 Primitive CutOff       TCut            ....  1.000e-14 Eh

Convergence Tolerance:
 Convergence Check Mode ConvCheckMode   .... Total+1el-Energy
 Convergence forced     ConvForced      .... 0
 Energy Change          TolE            ....  1.000e-09 Eh
 1-El. energy change                    ....  1.000e-06 Eh
 Orbital Gradient       TolG            ....  2.000e-06
 Orbital Rotation angle TolX            ....  2.000e-06
 DIIS Error             TolErr          ....  1.000e-08

---------------------
INITIAL GUESS: MOREAD
---------------------
Guess MOs are being read from file: Opt_15H2O_0.ges
Input Geometry matches current geometry (good)
Input basis set matches current basis set (good)
Occupation numbers will be reassigned to an Aufbau configuration
MOs were renormalized
MOs were reorthogonalized (Cholesky)
                      ------------------
                      INITIAL GUESS DONE (   0.8 sec)
                      ------------------
             **** ENERGY FILE WAS UPDATED (Opt_15H2O_0.en.tmp) ****
Finished Guess after   7.1 sec
Maximum memory used throughout the entire GUESS-calculation: 52.5 MB


           ************************************************************
           *        Program running with 8 parallel MPI-processes     *
           *              working on a common directory               *
           ************************************************************

-------------------------------------------------------------------------------------------
                                      ORCA LEAN-SCF
                              memory conserving SCF solver
-------------------------------------------------------------------------------------------

----------------------------------------D-I-I-S--------------------------------------------
Iteration    Energy (Eh)           Delta-E    RMSDP     MaxDP     DIISErr   Damp  Time(sec)
-------------------------------------------------------------------------------------------
               ***  Starting incremental Fock matrix formation  ***
                              *** Initializing SOSCF ***
---------------------------------------S-O-S-C-F--------------------------------------
Iteration    Energy (Eh)           Delta-E    RMSDP     MaxDP     MaxGrad    Time(sec)
--------------------------------------------------------------------------------------
    1    -1146.6238460727120128     0.00e+00  1.29e-08  6.13e-07  4.61e-08    19.2
               *** Restarting incremental Fock matrix formation ***
    2    -1146.6238460726428912     6.91e-11  1.14e-08  7.04e-07  1.81e-07    18.5
                  *** Gradient check signals convergence ***

               *****************************************************
               *                     SUCCESS                       *
               *           SCF CONVERGED AFTER   2 CYCLES          *
               *****************************************************

Recomputing exchange energy using gridx3       ... done (   13.180 sec)
Old exchange energy                            :    -26.799529946 Eh
New exchange energy                            :    -26.799588296 Eh
Exchange energy change after final integration :     -0.000058350 Eh
Total energy after final integration           :  -1146.623904423 Eh
             **** ENERGY FILE WAS UPDATED (Opt_15H2O_0.en.tmp) ****

----------------
TOTAL SCF ENERGY
----------------

Total Energy       :      -1146.62390442286187 Eh          -31201.22268 eV

Components:
Nuclear Repulsion  :       1434.21879638500718 Eh           39027.07755 eV
Electronic Energy  :      -2580.84264245765007 Eh          -70228.29864 eV
One Electron Energy:      -4439.16452595723513 Eh         -120795.80789 eV
Two Electron Energy:       1858.32188349958483 Eh           50567.50925 eV

Virial components:
Potential Energy   :      -2288.94167795253179 Eh          -62285.26958 eV
Kinetic Energy     :       1142.31777352966969 Eh           31084.04690 eV
Virial Ratio       :          2.00376964360791

DFT components:
N(Alpha)           :       75.000024846680 electrons
N(Beta)            :       75.000024846680 electrons
N(Total)           :      150.000049693361 electrons
E(X)               :     -106.794037222632 Eh       
E(C)               :       -6.131850562779 Eh       
E(XC)              :     -112.925887785411 Eh       

---------------
SCF CONVERGENCE
---------------

  Last Energy change         ...   -6.9122e-11  Tolerance :   1.0000e-09
  Last MAX-Density change    ...    7.0351e-07  Tolerance :   1.0000e-08
  Last RMS-Density change    ...    1.1352e-08  Tolerance :   1.0000e-09
  Last DIIS Error            ...    1.0877e-06  Tolerance :   1.0000e-08
  Last Orbital Gradient      ...    1.8082e-07  Tolerance :   2.0000e-06
  Last Orbital Rotation      ...    2.0551e-07  Tolerance :   2.0000e-06


----------------
ORBITAL ENERGIES
----------------

  NO   OCC          E(Eh)            E(eV) 
   0   2.0000     -19.149885      -521.0949 
   1   2.0000     -19.144278      -520.9423 
   2   2.0000     -19.140421      -520.8373 
   3   2.0000     -19.139224      -520.8048 
   4   2.0000     -19.129665      -520.5446 
   5   2.0000     -19.127399      -520.4830 
   6   2.0000     -19.122254      -520.3430 
   7   2.0000     -19.120249      -520.2884 
   8   2.0000     -19.117485      -520.2132 
   9   2.0000     -19.116971      -520.1992 
  10   2.0000     -19.116297      -520.1809 
  11   2.0000     -19.115609      -520.1622 
  12   2.0000     -19.110021      -520.0101 
  13   2.0000     -19.107233      -519.9343 
  14   2.0000     -19.105783      -519.8948 
  15   2.0000      -1.039556       -28.2878 
  16   2.0000      -1.030476       -28.0407 
  17   2.0000      -1.027629       -27.9632 
  18   2.0000      -1.024592       -27.8806 
  19   2.0000      -1.017091       -27.6765 
  20   2.0000      -1.013578       -27.5809 
  21   2.0000      -1.010474       -27.4964 
  22   2.0000      -1.006231       -27.3809 
  23   2.0000      -1.002484       -27.2790 
  24   2.0000      -1.001324       -27.2474 
  25   2.0000      -0.999488       -27.1975 
  26   2.0000      -0.996513       -27.1165 
  27   2.0000      -0.989719       -26.9316 
  28   2.0000      -0.984862       -26.7995 
  29   2.0000      -0.981547       -26.7093 
  30   2.0000      -0.567202       -15.4344 
  31   2.0000      -0.557604       -15.1732 
  32   2.0000      -0.552180       -15.0256 
  33   2.0000      -0.550600       -14.9826 
  34   2.0000      -0.540792       -14.7157 
  35   2.0000      -0.537674       -14.6308 
  36   2.0000      -0.536070       -14.5872 
  37   2.0000      -0.531856       -14.4725 
  38   2.0000      -0.527002       -14.3404 
  39   2.0000      -0.525001       -14.2860 
  40   2.0000      -0.518893       -14.1198 
  41   2.0000      -0.517299       -14.0764 
  42   2.0000      -0.514627       -14.0037 
  43   2.0000      -0.512229       -13.9385 
  44   2.0000      -0.505132       -13.7453 
  45   2.0000      -0.450715       -12.2646 
  46   2.0000      -0.440936       -11.9985 
  47   2.0000      -0.439661       -11.9638 
  48   2.0000      -0.424954       -11.5636 
  49   2.0000      -0.419661       -11.4196 
  50   2.0000      -0.417901       -11.3717 
  51   2.0000      -0.403504       -10.9799 
  52   2.0000      -0.398698       -10.8491 
  53   2.0000      -0.393610       -10.7107 
  54   2.0000      -0.387404       -10.5418 
  55   2.0000      -0.379871       -10.3368 
  56   2.0000      -0.378499       -10.2995 
  57   2.0000      -0.372584       -10.1385 
  58   2.0000      -0.370569       -10.0837 
  59   2.0000      -0.353422        -9.6171 
  60   2.0000      -0.343546        -9.3484 
  61   2.0000      -0.336847        -9.1661 
  62   2.0000      -0.334696        -9.1076 
  63   2.0000      -0.331232        -9.0133 
  64   2.0000      -0.326613        -8.8876 
  65   2.0000      -0.324674        -8.8348 
  66   2.0000      -0.319823        -8.7028 
  67   2.0000      -0.317433        -8.6378 
  68   2.0000      -0.315698        -8.5906 
  69   2.0000      -0.314511        -8.5583 
  70   2.0000      -0.312280        -8.4976 
  71   2.0000      -0.311261        -8.4699 
  72   2.0000      -0.303057        -8.2466 
  73   2.0000      -0.299732        -8.1561 
  74   2.0000      -0.298220        -8.1150 
  75   0.0000      -0.006193        -0.1685 
  76   0.0000       0.009490         0.2582 
  77   0.0000       0.021377         0.5817 
  78   0.0000       0.031010         0.8438 
  79   0.0000       0.039325         1.0701 
  80   0.0000       0.048427         1.3178 
  81   0.0000       0.058128         1.5817 
  82   0.0000       0.083231         2.2648 
  83   0.0000       0.089706         2.4410 
  84   0.0000       0.100804         2.7430 
  85   0.0000       0.115845         3.1523 
*Only the first 10 virtual orbitals were printed.

                    ********************************
                    * MULLIKEN POPULATION ANALYSIS *
                    ********************************

-----------------------
MULLIKEN ATOMIC CHARGES
-----------------------
   0 O :   -0.691433
   1 H :    0.358671
   2 H :    0.358989
   3 O :   -0.691865
   4 H :    0.324566
   5 H :    0.366499
   6 O :   -0.755394
   7 H :    0.353583
   8 H :    0.391550
   9 O :   -0.715586
  10 H :    0.331973
  11 H :    0.378248
  12 O :   -0.728819
  13 H :    0.371116
  14 H :    0.362324
  15 O :   -0.698437
  16 H :    0.354167
  17 H :    0.345792
  18 O :   -0.711621
  19 H :    0.382035
  20 H :    0.330418
  21 O :   -0.763120
  22 H :    0.374254
  23 H :    0.348579
  24 O :   -0.697084
  25 H :    0.335398
  26 H :    0.364735
  27 O :   -0.677991
  28 H :    0.360525
  29 H :    0.321126
  30 O :   -0.747206
  31 H :    0.369646
  32 H :    0.372443
  33 O :   -0.712684
  34 H :    0.373336
  35 H :    0.332839
  36 O :   -0.684709
  37 H :    0.377816
  38 H :    0.325997
  39 O :   -0.686914
  40 H :    0.338554
  41 H :    0.359635
  42 O :   -0.689851
  43 H :    0.338919
  44 H :    0.348978
Sum of atomic charges:   -0.0000000

--------------------------------
MULLIKEN REDUCED ORBITAL CHARGES
--------------------------------
  0 O s       :     3.783749  s :     3.783749
      pz      :     1.609862  p :     4.888325
      px      :     1.661119
      py      :     1.617345
      dz2     :     0.001401  d :     0.018238
      dxz     :     0.004842
      dyz     :     0.003796
      dx2y2   :     0.006604
      dxy     :     0.001596
      f0      :     0.000164  f :     0.001121
      f+1     :     0.000256
      f-1     :     0.000017
      f+2     :     0.000507
      f-2     :     0.000060
      f+3     :     0.000018
      f-3     :     0.000099

  1 H s       :     0.588830  s :     0.588830
      pz      :     0.014564  p :     0.052500
      px      :     0.011468
      py      :     0.026468

  2 H s       :     0.589835  s :     0.589835
      pz      :     0.019579  p :     0.051176
      px      :     0.020024
      py      :     0.011572

  3 O s       :     3.785194  s :     3.785194
      pz      :     1.706408  p :     4.888042
      px      :     1.464093
      py      :     1.717541
      dz2     :     0.003044  d :     0.017409
      dxz     :     0.000716
      dyz     :     0.005410
      dx2y2   :     0.005835
      dxy     :     0.002405
      f0      :     0.000125  f :     0.001221
      f+1     :     0.000193
      f-1     :     0.000249
      f+2     :     0.000248
      f-2     :     0.000158
      f+3     :     0.000168
      f-3     :     0.000080

  4 H s       :     0.626985  s :     0.626985
      pz      :     0.013746  p :     0.048449
      px      :     0.022256
      py      :     0.012447

  5 H s       :     0.579449  s :     0.579449
      pz      :     0.022023  p :     0.054051
      px      :     0.011367
      py      :     0.020661

  6 O s       :     3.791695  s :     3.791695
      pz      :     1.781441  p :     4.946532
      px      :     1.470309
      py      :     1.694782
      dz2     :     0.001853  d :     0.016078
      dxz     :     0.003025
      dyz     :     0.003694
      dx2y2   :     0.006224
      dxy     :     0.001281
      f0      :     0.000225  f :     0.001089
      f+1     :     0.000077
      f-1     :     0.000040
      f+2     :     0.000237
      f-2     :     0.000136
      f+3     :     0.000329
      f-3     :     0.000045

  7 H s       :     0.593595  s :     0.593595
      pz      :     0.013666  p :     0.052822
      px      :     0.027456
      py      :     0.011700

  8 H s       :     0.549193  s :     0.549193
      pz      :     0.015574  p :     0.059257
      px      :     0.013615
      py      :     0.030068

  9 O s       :     3.796657  s :     3.796657
      pz      :     1.929295  p :     4.901230
      px      :     1.481179
      py      :     1.490756
      dz2     :     0.003517  d :     0.016531
      dxz     :     0.000706
      dyz     :     0.001242
      dx2y2   :     0.009263
      dxy     :     0.001802
      f0      :     0.000121  f :     0.001167
      f+1     :     0.000300
      f-1     :     0.000302
      f+2     :     0.000025
      f-2     :     0.000009
      f+3     :     0.000383
      f-3     :     0.000026

 10 H s       :     0.620803  s :     0.620803
      pz      :     0.015741  p :     0.047223
      px      :     0.012303
      py      :     0.019179

 11 H s       :     0.564878  s :     0.564878
      pz      :     0.012896  p :     0.056874
      px      :     0.035257
      py      :     0.008721

 12 O s       :     3.796599  s :     3.796599
      pz      :     1.368127  p :     4.914218
      px      :     1.930084
      py      :     1.616006
      dz2     :     0.000411  d :     0.016869
      dxz     :     0.000549
      dyz     :     0.010712
      dx2y2   :     0.003562
      dxy     :     0.001635
      f0      :     0.000049  f :     0.001133
      f+1     :     0.000089
      f-1     :     0.000456
      f+2     :     0.000340
      f-2     :     0.000024
      f+3     :     0.000055
      f-3     :     0.000119

 13 H s       :     0.576307  s :     0.576307
      pz      :     0.018841  p :     0.052577
      px      :     0.013794
      py      :     0.019941

 14 H s       :     0.586127  s :     0.586127
      pz      :     0.019959  p :     0.051548
      px      :     0.014909
      py      :     0.016680

 15 O s       :     3.780426  s :     3.780426
      pz      :     1.866141  p :     4.898483
      px      :     1.375154
      py      :     1.657188
      dz2     :     0.001851  d :     0.018402
      dxz     :     0.004248
      dyz     :     0.004939
      dx2y2   :     0.003666
      dxy     :     0.003698
      f0      :     0.000265  f :     0.001125
      f+1     :     0.000141
      f-1     :     0.000053
      f+2     :     0.000099
      f-2     :     0.000224
      f+3     :     0.000262
      f-3     :     0.000082

 16 H s       :     0.592533  s :     0.592533
      pz      :     0.017455  p :     0.053300
      px      :     0.015438
      py      :     0.020408

 17 H s       :     0.602030  s :     0.602030
      pz      :     0.015069  p :     0.052178
      px      :     0.024582
      py      :     0.012528

 18 O s       :     3.797587  s :     3.797587
      pz      :     1.670087  p :     4.896063
      px      :     1.684724
      py      :     1.541252
      dz2     :     0.002474  d :     0.016749
      dxz     :     0.005199
      dyz     :     0.001224
      dx2y2   :     0.002379
      dxy     :     0.005473
      f0      :     0.000143  f :     0.001222
      f+1     :     0.000191
      f-1     :     0.000206
      f+2     :     0.000153
      f-2     :     0.000314
      f+3     :     0.000198
      f-3     :     0.000018

 19 H s       :     0.564583  s :     0.564583
      pz      :     0.012225  p :     0.053382
      px      :     0.012437
      py      :     0.028720

 20 H s       :     0.621998  s :     0.621998
      pz      :     0.018062  p :     0.047584
      px      :     0.016031
      py      :     0.013491

 21 O s       :     3.810471  s :     3.810471
      pz      :     1.481319  p :     4.934588
      px      :     1.751435
      py      :     1.701834
      dz2     :     0.008854  d :     0.016962
      dxz     :     0.000463
      dyz     :     0.001105
      dx2y2   :     0.001119
      dxy     :     0.005421
      f0      :     0.000450  f :     0.001098
      f+1     :     0.000063
      f-1     :     0.000020
      f+2     :     0.000009
      f-2     :     0.000143
      f+3     :     0.000258
      f-3     :     0.000155

 22 H s       :     0.570672  s :     0.570672
      pz      :     0.033392  p :     0.055074
      px      :     0.011060
      py      :     0.010622

 23 H s       :     0.600690  s :     0.600690
      pz      :     0.010979  p :     0.050731
      px      :     0.020096
      py      :     0.019655

 24 O s       :     3.795303  s :     3.795303
      pz      :     1.439968  p :     4.883823
      px      :     1.838086
      py      :     1.605769
      dz2     :     0.002728  d :     0.016743
      dxz     :     0.002561
      dyz     :     0.005186
      dx2y2   :     0.004691
      dxy     :     0.001576
      f0      :     0.000172  f :     0.001215
      f+1     :     0.000439
      f-1     :     0.000055
      f+2     :     0.000272
      f-2     :     0.000111
      f+3     :     0.000024
      f-3     :     0.000141

 25 H s       :     0.617239  s :     0.617239
      pz      :     0.018804  p :     0.047363
      px      :     0.016477
      py      :     0.012082

 26 H s       :     0.581226  s :     0.581226
      pz      :     0.016267  p :     0.054039
      px      :     0.013021
      py      :     0.024751

 27 O s       :     3.800736  s :     3.800736
      pz      :     1.796249  p :     4.858153
      px      :     1.697450
      py      :     1.364454
      dz2     :     0.001605  d :     0.017849
      dxz     :     0.003756
      dyz     :     0.006303
      dx2y2   :     0.001684
      dxy     :     0.004502
      f0      :     0.000271  f :     0.001252
      f+1     :     0.000059
      f-1     :     0.000057
      f+2     :     0.000214
      f-2     :     0.000255
      f+3     :     0.000192
      f-3     :     0.000204

 28 H s       :     0.587498  s :     0.587498
      pz      :     0.016373  p :     0.051977
      px      :     0.012157
      py      :     0.023447

 29 H s       :     0.631038  s :     0.631038
      pz      :     0.015370  p :     0.047836
      px      :     0.017130
      py      :     0.015336

 30 O s       :     3.797881  s :     3.797881
      pz      :     1.580192  p :     4.931595
      px      :     1.554602
      py      :     1.796802
      dz2     :     0.004326  d :     0.016659
      dxz     :     0.001632
      dyz     :     0.003936
      dx2y2   :     0.005195
      dxy     :     0.001570
      f0      :     0.000084  f :     0.001070
      f+1     :     0.000041
      f-1     :     0.000404
      f+2     :     0.000143
      f-2     :     0.000078
      f+3     :     0.000192
      f-3     :     0.000128

 31 H s       :     0.579181  s :     0.579181
      pz      :     0.011766  p :     0.051173
      px      :     0.026326
      py      :     0.013081

 32 H s       :     0.571548  s :     0.571548
      pz      :     0.027635  p :     0.056008
      px      :     0.009662
      py      :     0.018711

 33 O s       :     3.798689  s :     3.798689
      pz      :     1.785104  p :     4.895936
      px      :     1.506748
      py      :     1.604084
      dz2     :     0.001998  d :     0.016875
      dxz     :     0.003085
      dyz     :     0.002404
      dx2y2   :     0.005436
      dxy     :     0.003952
      f0      :     0.000281  f :     0.001184
      f+1     :     0.000104
      f-1     :     0.000084
      f+2     :     0.000296
      f-2     :     0.000192
      f+3     :     0.000205
      f-3     :     0.000023

 34 H s       :     0.570379  s :     0.570379
      pz      :     0.013413  p :     0.056285
      px      :     0.015263
      py      :     0.027609

 35 H s       :     0.619924  s :     0.619924
      pz      :     0.016715  p :     0.047237
      px      :     0.018385
      py      :     0.012136

 36 O s       :     3.787778  s :     3.787778
      pz      :     1.546160  p :     4.878056
      px      :     1.540613
      py      :     1.791284
      dz2     :     0.006612  d :     0.017658
      dxz     :     0.000629
      dyz     :     0.003503
      dx2y2   :     0.005019
      dxy     :     0.001895
      f0      :     0.000085  f :     0.001217
      f+1     :     0.000087
      f-1     :     0.000513
      f+2     :     0.000116
      f-2     :     0.000079
      f+3     :     0.000182
      f-3     :     0.000157

 37 H s       :     0.566999  s :     0.566999
      pz      :     0.010754  p :     0.055184
      px      :     0.029964
      py      :     0.014466

 38 H s       :     0.626653  s :     0.626653
      pz      :     0.019278  p :     0.047350
      px      :     0.011566
      py      :     0.016507

 39 O s       :     3.784135  s :     3.784135
      pz      :     1.826008  p :     4.883140
      px      :     1.454894
      py      :     1.602238
      dz2     :     0.002863  d :     0.018516
      dxz     :     0.002224
      dyz     :     0.003119
      dx2y2   :     0.002640
      dxy     :     0.007670
      f0      :     0.000264  f :     0.001123
      f+1     :     0.000115
      f-1     :     0.000111
      f+2     :     0.000146
      f-2     :     0.000243
      f+3     :     0.000147
      f-3     :     0.000097

 40 H s       :     0.608489  s :     0.608489
      pz      :     0.016770  p :     0.052957
      px      :     0.022594
      py      :     0.013594

 41 H s       :     0.588526  s :     0.588526
      pz      :     0.014119  p :     0.051839
      px      :     0.015702
      py      :     0.022018

 42 O s       :     3.792379  s :     3.792379
      pz      :     1.815982  p :     4.877249
      px      :     1.515401
      py      :     1.545865
      dz2     :     0.002875  d :     0.019091
      dxz     :     0.001430
      dyz     :     0.005482
      dx2y2   :     0.007798
      dxy     :     0.001506
      f0      :     0.000192  f :     0.001133
      f+1     :     0.000216
      f-1     :     0.000116
      f+2     :     0.000288
      f-2     :     0.000035
      f+3     :     0.000076
      f-3     :     0.000211

 43 H s       :     0.610025  s :     0.610025
      pz      :     0.018592  p :     0.051056
      px      :     0.010768
      py      :     0.021695

 44 H s       :     0.599407  s :     0.599407
      pz      :     0.013249  p :     0.051615
      px      :     0.025869
      py      :     0.012497



                     *******************************
                     * LOEWDIN POPULATION ANALYSIS *
                     *******************************

----------------------
LOEWDIN ATOMIC CHARGES
----------------------
   0 O :   -0.284604
   1 H :    0.143063
   2 H :    0.146567
   3 O :   -0.297445
   4 H :    0.143104
   5 H :    0.146340
   6 O :   -0.291755
   7 H :    0.136567
   8 H :    0.140171
   9 O :   -0.292039
  10 H :    0.156325
  11 H :    0.145908
  12 O :   -0.305157
  13 H :    0.148967
  14 H :    0.144256
  15 O :   -0.283734
  16 H :    0.139966
  17 H :    0.139631
  18 O :   -0.298085
  19 H :    0.150934
  20 H :    0.157484
  21 O :   -0.295740
  22 H :    0.133549
  23 H :    0.139729
  24 O :   -0.278286
  25 H :    0.159290
  26 H :    0.145113
  27 O :   -0.300147
  28 H :    0.150047
  29 H :    0.155856
  30 O :   -0.291167
  31 H :    0.151484
  32 H :    0.138951
  33 O :   -0.289004
  34 H :    0.144124
  35 H :    0.157512
  36 O :   -0.287271
  37 H :    0.147150
  38 H :    0.156196
  39 O :   -0.284164
  40 H :    0.139439
  41 H :    0.141382
  42 O :   -0.300039
  43 H :    0.140161
  44 H :    0.139373

-------------------------------
LOEWDIN REDUCED ORBITAL CHARGES
-------------------------------
  0 O s       :     3.443987  s :     3.443987
      pz      :     1.585842  p :     4.809980
      px      :     1.621226
      py      :     1.602912
      dz2     :     0.001903  d :     0.028459
      dxz     :     0.008603
      dyz     :     0.006087
      dx2y2   :     0.010953
      dxy     :     0.000913
      f0      :     0.000327  f :     0.002179
      f+1     :     0.000431
      f-1     :     0.000006
      f+2     :     0.000901
      f-2     :     0.000049
      f+3     :     0.000111
      f-3     :     0.000354

  1 H s       :     0.677059  s :     0.677059
      pz      :     0.047455  p :     0.179878
      px      :     0.035319
      py      :     0.097105

  2 H s       :     0.681717  s :     0.681717
      pz      :     0.065198  p :     0.171716
      px      :     0.071526
      py      :     0.034992

  3 O s       :     3.441187  s :     3.441187
      pz      :     1.675306  p :     4.825604
      px      :     1.475320
      py      :     1.674978
      dz2     :     0.004652  d :     0.028441
      dxz     :     0.001433
      dyz     :     0.008259
      dx2y2   :     0.010895
      dxy     :     0.003202
      f0      :     0.000169  f :     0.002213
      f+1     :     0.000286
      f-1     :     0.000479
      f+2     :     0.000352
      f-2     :     0.000234
      f+3     :     0.000409
      f-3     :     0.000284

  4 H s       :     0.689010  s :     0.689010
      pz      :     0.039746  p :     0.167885
      px      :     0.086971
      py      :     0.041169

  5 H s       :     0.676251  s :     0.676251
      pz      :     0.074357  p :     0.177410
      px      :     0.032513
      py      :     0.070540

  6 O s       :     3.443661  s :     3.443661
      pz      :     1.732043  p :     4.819408
      px      :     1.460653
      py      :     1.626712
      dz2     :     0.003845  d :     0.026652
      dxz     :     0.004626
      dyz     :     0.004756
      dx2y2   :     0.010626
      dxy     :     0.002798
      f0      :     0.000378  f :     0.002035
      f+1     :     0.000100
      f-1     :     0.000013
      f+2     :     0.000584
      f-2     :     0.000261
      f+3     :     0.000653
      f-3     :     0.000045

  7 H s       :     0.680623  s :     0.680623
      pz      :     0.045882  p :     0.182810
      px      :     0.100226
      py      :     0.036702

  8 H s       :     0.657676  s :     0.657676
      pz      :     0.054187  p :     0.202154
      px      :     0.041936
      py      :     0.106030

  9 O s       :     3.450301  s :     3.450301
      pz      :     1.857861  p :     4.811953
      px      :     1.457297
      py      :     1.496795
      dz2     :     0.005223  d :     0.027623
      dxz     :     0.000894
      dyz     :     0.001666
      dx2y2   :     0.016068
      dxy     :     0.003772
      f0      :     0.000038  f :     0.002162
      f+1     :     0.000410
      f-1     :     0.000477
      f+2     :     0.000061
      f-2     :     0.000015
      f+3     :     0.000921
      f-3     :     0.000240

 10 H s       :     0.680947  s :     0.680947
      pz      :     0.045899  p :     0.162728
      px      :     0.035873
      py      :     0.080955

 11 H s       :     0.656547  s :     0.656547
      pz      :     0.040481  p :     0.197545
      px      :     0.131040
      py      :     0.026023

 12 O s       :     3.448221  s :     3.448221
      pz      :     1.360778  p :     4.827571
      px      :     1.866673
      py      :     1.600120
      dz2     :     0.002193  d :     0.027252
      dxz     :     0.000937
      dyz     :     0.019144
      dx2y2   :     0.003904
      dxy     :     0.001073
      f0      :     0.000030  f :     0.002113
      f+1     :     0.000041
      f-1     :     0.001017
      f+2     :     0.000844
      f-2     :     0.000073
      f+3     :     0.000014
      f-3     :     0.000095

 13 H s       :     0.672201  s :     0.672201
      pz      :     0.063892  p :     0.178832
      px      :     0.042952
      py      :     0.071988

 14 H s       :     0.681949  s :     0.681949
      pz      :     0.069280  p :     0.173794
      px      :     0.045025
      py      :     0.059489

 15 O s       :     3.442114  s :     3.442114
      pz      :     1.809020  p :     4.810775
      px      :     1.375039
      py      :     1.626717
      dz2     :     0.002229  d :     0.028667
      dxz     :     0.006121
      dyz     :     0.005336
      dx2y2   :     0.007467
      dxy     :     0.007514
      f0      :     0.000344  f :     0.002178
      f+1     :     0.000170
      f-1     :     0.000014
      f+2     :     0.000295
      f-2     :     0.000563
      f+3     :     0.000589
      f-3     :     0.000204

 16 H s       :     0.678680  s :     0.678680
      pz      :     0.057618  p :     0.181354
      px      :     0.048215
      py      :     0.075522

 17 H s       :     0.684360  s :     0.684360
      pz      :     0.047715  p :     0.176009
      px      :     0.089540
      py      :     0.038755

 18 O s       :     3.448969  s :     3.448969
      pz      :     1.645867  p :     4.819087
      px      :     1.670114
      py      :     1.503105
      dz2     :     0.003349  d :     0.027836
      dxz     :     0.008730
      dyz     :     0.003291
      dx2y2   :     0.003595
      dxy     :     0.008870
      f0      :     0.000212  f :     0.002194
      f+1     :     0.000409
      f-1     :     0.000259
      f+2     :     0.000137
      f-2     :     0.000601
      f+3     :     0.000460
      f-3     :     0.000117

 19 H s       :     0.663853  s :     0.663853
      pz      :     0.037829  p :     0.185213
      px      :     0.045237
      py      :     0.102147

 20 H s       :     0.680558  s :     0.680558
      pz      :     0.063187  p :     0.161959
      px      :     0.057669
      py      :     0.041102

 21 O s       :     3.449182  s :     3.449182
      pz      :     1.474261  p :     4.816909
      px      :     1.682176
      py      :     1.660472
      dz2     :     0.014996  d :     0.027638
      dxz     :     0.000902
      dyz     :     0.001386
      dx2y2   :     0.001213
      dxy     :     0.009142
      f0      :     0.000914  f :     0.002011
      f+1     :     0.000107
      f-1     :     0.000135
      f+2     :     0.000006
      f-2     :     0.000229
      f+3     :     0.000392
      f-3     :     0.000228

 22 H s       :     0.673719  s :     0.673719
      pz      :     0.123834  p :     0.192732
      px      :     0.035479
      py      :     0.033419

 23 H s       :     0.686212  s :     0.686212
      pz      :     0.032485  p :     0.174058
      px      :     0.069547
      py      :     0.072026

 24 O s       :     3.443778  s :     3.443778
      pz      :     1.435313  p :     4.804114
      px      :     1.776396
      py      :     1.592405
      dz2     :     0.005905  d :     0.028193
      dxz     :     0.005207
      dyz     :     0.009305
      dx2y2   :     0.006265
      dxy     :     0.001510
      f0      :     0.000293  f :     0.002202
      f+1     :     0.000757
      f-1     :     0.000189
      f+2     :     0.000504
      f-2     :     0.000158
      f+3     :     0.000036
      f-3     :     0.000266

 25 H s       :     0.678426  s :     0.678426
      pz      :     0.071454  p :     0.162284
      px      :     0.053074
      py      :     0.037756

 26 H s       :     0.669088  s :     0.669088
      pz      :     0.052041  p :     0.185799
      px      :     0.040501
      py      :     0.093257

 27 O s       :     3.448949  s :     3.448949
      pz      :     1.774512  p :     4.820066
      px      :     1.675970
      py      :     1.369584
      dz2     :     0.001560  d :     0.028835
      dxz     :     0.003567
      dyz     :     0.010375
      dx2y2   :     0.003867
      dxy     :     0.009466
      f0      :     0.000391  f :     0.002297
      f+1     :     0.000039
      f-1     :     0.000041
      f+2     :     0.000456
      f-2     :     0.000657
      f+3     :     0.000347
      f-3     :     0.000366

 28 H s       :     0.674872  s :     0.674872
      pz      :     0.055400  p :     0.175081
      px      :     0.038295
      py      :     0.081385

 29 H s       :     0.682814  s :     0.682814
      pz      :     0.048646  p :     0.161330
      px      :     0.062773
      py      :     0.049912

 30 O s       :     3.447683  s :     3.447683
      pz      :     1.554499  p :     4.814291
      px      :     1.522547
      py      :     1.737246
      dz2     :     0.007265  d :     0.027122
      dxz     :     0.002617
      dyz     :     0.006436
      dx2y2   :     0.007919
      dxy     :     0.002885
      f0      :     0.000173  f :     0.002070
      f+1     :     0.000233
      f-1     :     0.000667
      f+2     :     0.000265
      f-2     :     0.000091
      f+3     :     0.000381
      f-3     :     0.000259

 31 H s       :     0.674714  s :     0.674714
      pz      :     0.034972  p :     0.173802
      px      :     0.097928
      py      :     0.040901

 32 H s       :     0.666912  s :     0.666912
      pz      :     0.100430  p :     0.194137
      px      :     0.030467
      py      :     0.063240

 33 O s       :     3.449266  s :     3.449266
      pz      :     1.733538  p :     4.809730
      px      :     1.489222
      py      :     1.586970
      dz2     :     0.002226  d :     0.027832
      dxz     :     0.006481
      dyz     :     0.003625
      dx2y2   :     0.009130
      dxy     :     0.006369
      f0      :     0.000465  f :     0.002176
      f+1     :     0.000025
      f-1     :     0.000129
      f+2     :     0.000564
      f-2     :     0.000251
      f+3     :     0.000513
      f-3     :     0.000229

 34 H s       :     0.662294  s :     0.662294
      pz      :     0.042964  p :     0.193583
      px      :     0.047459
      py      :     0.103159

 35 H s       :     0.680013  s :     0.680013
      pz      :     0.053486  p :     0.162475
      px      :     0.071320
      py      :     0.037669

 36 O s       :     3.445601  s :     3.445601
      pz      :     1.556939  p :     4.810656
      px      :     1.522558
      py      :     1.731159
      dz2     :     0.010901  d :     0.028762
      dxz     :     0.000333
      dyz     :     0.006879
      dx2y2   :     0.007394
      dxy     :     0.003255
      f0      :     0.000193  f :     0.002252
      f+1     :     0.000275
      f-1     :     0.000937
      f+2     :     0.000185
      f-2     :     0.000041
      f+3     :     0.000353
      f-3     :     0.000267

 37 H s       :     0.664997  s :     0.664997
      pz      :     0.030537  p :     0.187853
      px      :     0.112104
      py      :     0.045212

 38 H s       :     0.682043  s :     0.682043
      pz      :     0.075734  p :     0.161762
      px      :     0.032415
      py      :     0.053612

 39 O s       :     3.443346  s :     3.443346
      pz      :     1.764053  p :     4.809460
      px      :     1.449006
      py      :     1.596400
      dz2     :     0.003252  d :     0.029152
      dxz     :     0.004195
      dyz     :     0.004619
      dx2y2   :     0.003968
      dxy     :     0.013118
      f0      :     0.000416  f :     0.002207
      f+1     :     0.000086
      f-1     :     0.000174
      f+2     :     0.000203
      f-2     :     0.000433
      f+3     :     0.000521
      f-3     :     0.000374

 40 H s       :     0.682675  s :     0.682675
      pz      :     0.052871  p :     0.177886
      px      :     0.079579
      py      :     0.045437

 41 H s       :     0.683410  s :     0.683410
      pz      :     0.045080  p :     0.175208
      px      :     0.048677
      py      :     0.081452

 42 O s       :     3.450592  s :     3.450592
      pz      :     1.765828  p :     4.818368
      px      :     1.522595
      py      :     1.529945
      dz2     :     0.003376  d :     0.028883
      dxz     :     0.000650
      dyz     :     0.008767
      dx2y2   :     0.013499
      dxy     :     0.002592
      f0      :     0.000232  f :     0.002195
      f+1     :     0.000402
      f-1     :     0.000085
      f+2     :     0.000636
[...]
100:   1710.47   0.027239  137.65  0.004970  ( 0.041655  0.051018  0.025131)
101:   1720.34   0.008362   42.26  0.001517  ( 0.020345  0.027625 -0.018432)
102:   1726.65   0.015893   80.31  0.002872  ( 0.038578 -0.037080  0.003020)
103:   1742.16   0.010127   51.18  0.001814  ( 0.025451  0.032700  0.009850)
104:   1749.95   0.010656   53.85  0.001900  (-0.035983 -0.002128 -0.024515)
105:   3117.09   0.238390  1204.73  0.023866  (-0.147150 -0.040240 -0.024364)
106:   3145.27   0.167619  847.08  0.016631  (-0.000443  0.113361  0.061479)
107:   3238.42   0.169848  858.34  0.016367  (-0.109020  0.025954 -0.061709)
108:   3277.71   0.289293  1461.97  0.027543  (-0.021319 -0.153262 -0.059993)
109:   3295.51   0.104046  525.81  0.009852  ( 0.010377  0.038795 -0.090773)
110:   3362.85   0.164917  833.42  0.015304  (-0.046207 -0.112223 -0.023973)
111:   3391.30   0.139346  704.20  0.012822  (-0.068172 -0.079964  0.042200)
112:   3398.83   0.066196  334.53  0.006078  (-0.003357 -0.053643 -0.056471)
113:   3452.97   0.142683  721.06  0.012895  ( 0.000846 -0.094835 -0.062455)
114:   3513.44   0.086475  437.01  0.007681  (-0.066109  0.042870 -0.038373)
115:   3530.48   0.104014  525.64  0.009194  (-0.048556  0.078862  0.024842)
116:   3556.44   0.049495  250.13  0.004343  ( 0.035803 -0.037359 -0.040809)
117:   3570.22   0.098533  497.95  0.008613  (-0.004542  0.054632  0.074881)
118:   3587.61   0.033867  171.15  0.002946  ( 0.020323 -0.033863  0.037230)
119:   3605.10   0.132542  669.81  0.011473  (-0.098326 -0.023406  0.035456)
120:   3611.84   0.159955  808.35  0.013820  (-0.116387 -0.016466  0.001726)
121:   3614.35   0.058109  293.66  0.005017  (-0.001677  0.070662  0.004596)
122:   3634.94   0.041299  208.71  0.003546  ( 0.006591 -0.058932 -0.005397)
123:   3650.65   0.042242  213.47  0.003611  (-0.059510 -0.008331 -0.000139)
124:   3654.80   0.053839  272.08  0.004597  (-0.021429 -0.001461  0.064309)
125:   3671.62   0.139627  705.62  0.011867  ( 0.081782 -0.045649 -0.055635)
126:   3685.45   0.062111  313.88  0.005259  (-0.042385  0.048127 -0.033860)
127:   3698.95   0.076515  386.68  0.006455  ( 0.048666  0.054634 -0.033197)
128:   3756.32   0.042699  215.78  0.003547  ( 0.050178  0.017342  0.026995)
129:   3844.87   0.011508   58.16  0.000934  ( 0.017254  0.024340  0.006626)
130:   3845.43   0.011223   56.72  0.000911  ( 0.023867 -0.007563  0.016851)
131:   3849.11   0.011848   59.88  0.000961  ( 0.017004  0.016580 -0.019914)
132:   3850.42   0.012915   65.27  0.001047  ( 0.010497 -0.022790 -0.020424)
133:   3851.91   0.014100   71.25  0.001142  (-0.015662  0.002660  0.029832)
134:   3854.27   0.014861   75.10  0.001203  ( 0.013050 -0.032120 -0.001111)

* The epsilon (eps) is given for a Dirac delta lineshape.
** The dipole moment derivative (T) already includes vibrational overlap.

The first frequency considered to be a vibration is 6
The total number of vibrations considered is 129


--------------------------
THERMOCHEMISTRY AT 300.00K
--------------------------

Temperature         ...   300.00 K
Pressure            ...     1.00 atm
Total Mass          ...   270.23 AMU
Quasi RRHO          ...     True
Cut-Off Frequency   ...     1.00 cm^-1

Throughout the following assumptions are being made:
  (1) The electronic state is orbitally nondegenerate
  (2) There are no thermally accessible electronically excited states
  (3) Hindered rotations indicated by low frequency modes are not
      treated as such but are treated as vibrations and this may
      cause some error
  (4) All equations used are the standard statistical mechanics
      equations for an ideal gas
  (5) All vibrations are strictly harmonic

freq.      34.13  E(vib)   ...       0.55 
freq.      40.46  E(vib)   ...       0.54 
freq.      42.02  E(vib)   ...       0.54 
freq.      46.04  E(vib)   ...       0.53 
freq.      48.35  E(vib)   ...       0.53 
freq.      54.86  E(vib)   ...       0.52 
freq.      63.02  E(vib)   ...       0.51 
freq.      66.39  E(vib)   ...       0.51 
freq.      68.78  E(vib)   ...       0.50 
freq.      71.05  E(vib)   ...       0.50 
freq.      76.17  E(vib)   ...       0.49 
freq.      80.27  E(vib)   ...       0.49 
freq.      89.06  E(vib)   ...       0.48 
freq.      90.94  E(vib)   ...       0.48 
freq.      99.36  E(vib)   ...       0.47 
freq.     113.32  E(vib)   ...       0.45 
freq.     124.28  E(vib)   ...       0.44 
freq.     131.57  E(vib)   ...       0.43 
freq.     150.97  E(vib)   ...       0.41 
freq.     155.69  E(vib)   ...       0.40 
freq.     157.50  E(vib)   ...       0.40 
freq.     160.17  E(vib)   ...       0.40 
freq.     171.19  E(vib)   ...       0.38 
freq.     181.21  E(vib)   ...       0.37 
freq.     182.08  E(vib)   ...       0.37 
freq.     189.01  E(vib)   ...       0.37 
freq.     193.93  E(vib)   ...       0.36 
freq.     204.58  E(vib)   ...       0.35 
freq.     213.81  E(vib)   ...       0.34 
freq.     216.92  E(vib)   ...       0.34 
freq.     237.44  E(vib)   ...       0.32 
freq.     242.17  E(vib)   ...       0.32 
freq.     261.00  E(vib)   ...       0.30 
freq.     266.69  E(vib)   ...       0.29 
freq.     274.83  E(vib)   ...       0.29 
freq.     275.98  E(vib)   ...       0.29 
freq.     277.13  E(vib)   ...       0.29 
freq.     283.53  E(vib)   ...       0.28 
freq.     289.12  E(vib)   ...       0.28 
freq.     292.09  E(vib)   ...       0.27 
freq.     307.57  E(vib)   ...       0.26 
freq.     311.83  E(vib)   ...       0.26 
freq.     317.13  E(vib)   ...       0.25 
freq.     341.94  E(vib)   ...       0.24 
freq.     355.47  E(vib)   ...       0.23 
freq.     391.94  E(vib)   ...       0.20 
freq.     399.76  E(vib)   ...       0.20 
freq.     439.36  E(vib)   ...       0.17 
freq.     446.84  E(vib)   ...       0.17 
freq.     461.68  E(vib)   ...       0.16 
freq.     467.87  E(vib)   ...       0.16 
freq.     484.64  E(vib)   ...       0.15 
freq.     496.12  E(vib)   ...       0.14 
freq.     513.11  E(vib)   ...       0.14 
freq.     523.90  E(vib)   ...       0.13 
freq.     536.64  E(vib)   ...       0.13 
freq.     542.96  E(vib)   ...       0.12 
freq.     555.79  E(vib)   ...       0.12 
freq.     563.16  E(vib)   ...       0.12 
freq.     583.67  E(vib)   ...       0.11 
freq.     600.39  E(vib)   ...       0.10 
freq.     605.77  E(vib)   ...       0.10 
freq.     631.40  E(vib)   ...       0.09 
freq.     642.37  E(vib)   ...       0.09 
freq.     660.54  E(vib)   ...       0.08 
freq.     668.13  E(vib)   ...       0.08 
freq.     679.12  E(vib)   ...       0.08 
freq.     699.95  E(vib)   ...       0.07 
freq.     709.02  E(vib)   ...       0.07 
freq.     728.28  E(vib)   ...       0.07 
freq.     745.78  E(vib)   ...       0.06 
freq.     753.96  E(vib)   ...       0.06 
freq.     781.00  E(vib)   ...       0.05 
freq.     790.04  E(vib)   ...       0.05 
freq.     802.54  E(vib)   ...       0.05 
freq.     839.33  E(vib)   ...       0.04 
freq.     879.61  E(vib)   ...       0.04 
freq.     884.62  E(vib)   ...       0.04 
freq.     935.45  E(vib)   ...       0.03 
freq.     956.39  E(vib)   ...       0.03 
freq.     965.34  E(vib)   ...       0.03 
freq.     989.03  E(vib)   ...       0.02 
freq.    1031.75  E(vib)   ...       0.02 
freq.    1052.40  E(vib)   ...       0.02 
freq.    1643.64  E(vib)   ...       0.00 
freq.    1643.83  E(vib)   ...       0.00 
freq.    1647.26  E(vib)   ...       0.00 
freq.    1649.45  E(vib)   ...       0.00 
freq.    1662.39  E(vib)   ...       0.00 
freq.    1666.58  E(vib)   ...       0.00 
freq.    1681.76  E(vib)   ...       0.00 
freq.    1691.46  E(vib)   ...       0.00 
freq.    1693.45  E(vib)   ...       0.00 
freq.    1698.56  E(vib)   ...       0.00 
freq.    1710.47  E(vib)   ...       0.00 
freq.    1720.34  E(vib)   ...       0.00 
freq.    1726.65  E(vib)   ...       0.00 
freq.    1742.16  E(vib)   ...       0.00 
freq.    1749.95  E(vib)   ...       0.00 
freq.    3117.09  E(vib)   ...       0.00 
freq.    3145.27  E(vib)   ...       0.00 
freq.    3238.42  E(vib)   ...       0.00 
freq.    3277.71  E(vib)   ...       0.00 
freq.    3295.51  E(vib)   ...       0.00 
freq.    3362.85  E(vib)   ...       0.00 
freq.    3391.30  E(vib)   ...       0.00 
freq.    3398.83  E(vib)   ...       0.00 
freq.    3452.97  E(vib)   ...       0.00 
freq.    3513.44  E(vib)   ...       0.00 
freq.    3530.48  E(vib)   ...       0.00 
freq.    3556.44  E(vib)   ...       0.00 
freq.    3570.22  E(vib)   ...       0.00 
freq.    3587.61  E(vib)   ...       0.00 
freq.    3605.10  E(vib)   ...       0.00 
freq.    3611.84  E(vib)   ...       0.00 
freq.    3614.35  E(vib)   ...       0.00 
freq.    3634.94  E(vib)   ...       0.00 
freq.    3650.65  E(vib)   ...       0.00 
freq.    3654.80  E(vib)   ...       0.00 
freq.    3671.62  E(vib)   ...       0.00 
freq.    3685.45  E(vib)   ...       0.00 
freq.    3698.95  E(vib)   ...       0.00 
freq.    3756.32  E(vib)   ...       0.00 
freq.    3844.87  E(vib)   ...       0.00 
freq.    3845.43  E(vib)   ...       0.00 
freq.    3849.11  E(vib)   ...       0.00 
freq.    3850.42  E(vib)   ...       0.00 
freq.    3851.91  E(vib)   ...       0.00 
freq.    3854.27  E(vib)   ...       0.00 

------------
INNER ENERGY
------------

The inner energy is: U= E(el) + E(ZPE) + E(vib) + E(rot) + E(trans)
    E(el)   - is the total energy from the electronic structure calculation
              = E(kin-el) + E(nuc-el) + E(el-el) + E(nuc-nuc)
    E(ZPE)  - the the zero temperature vibrational energy from the frequency calculation
    E(vib)  - the the finite temperature correction to E(ZPE) due to population
              of excited vibrational states
    E(rot)  - is the rotational thermal energy
    E(trans)- is the translational thermal energy

Summary of contributions to the inner energy U:
Electronic energy                ...  -1146.66448755 Eh
Zero point energy                ...      0.37985442 Eh     238.36 kcal/mol
Thermal vibrational correction   ...      0.03379896 Eh      21.21 kcal/mol
Thermal rotational correction    ...      0.00142506 Eh       0.89 kcal/mol
Thermal translational correction ...      0.00142506 Eh       0.89 kcal/mol
-----------------------------------------------------------------------
Total thermal energy                  -1146.24798405 Eh


Summary of corrections to the electronic energy:
(perhaps to be used in another calculation)
Total thermal correction                  0.03664908 Eh      23.00 kcal/mol
Non-thermal (ZPE) correction              0.37985442 Eh     238.36 kcal/mol
-----------------------------------------------------------------------
Total correction                          0.41650350 Eh     261.36 kcal/mol


--------
ENTHALPY
--------

The enthalpy is H = U + kB*T
                kB is Boltzmann's constant
Total thermal energy              ...  -1146.24798405 Eh 
Thermal Enthalpy correction       ...      0.00095007 Eh       0.60 kcal/mol
-----------------------------------------------------------------------
Total Enthalpy                    ...  -1146.24703398 Eh


Note: Only C1 symmetry has been detected, increase convergence thresholds 
      if your molecule has a higher symmetry. Symmetry factor of 1.0 is   
      used for the rotational entropy correction. 
 

Note: Rotational entropy computed according to Herzberg 
Infrared and Raman Spectra, Chapter V,1, Van Nostrand Reinhold, 1945 
Point Group:  C1, Symmetry Number:   1  
Rotational constants in cm-1:     0.010547     0.008147     0.005830 

Vibrational entropy computed according to the QRRHO of S. Grimme
Chem.Eur.J. 2012 18 9955 using a reference frequency of 100.0 cm-1


-------
ENTROPY
-------

The entropy contributions are T*S = T*(S(el)+S(vib)+S(rot)+S(trans))
     S(el)   - electronic entropy
     S(vib)  - vibrational entropy
     S(rot)  - rotational entropy
     S(trans)- translational entropy
The entropies will be listed as multiplied by the temperature to get
units of energy

Electronic entropy                ...      0.00000000 Eh      0.00 kcal/mol
Vibrational entropy               ...      0.06135100 Eh     38.50 kcal/mol
Rotational entropy                ...      0.01646965 Eh     10.33 kcal/mol
Translational entropy             ...      0.02041966 Eh     12.81 kcal/mol
-----------------------------------------------------------------------
Final entropy term                ...      0.09824031 Eh     61.65 kcal/mol

In case the symmetry of your molecule has not been determined correctly
or in case you have a reason to use a different symmetry number we print 
out the resulting rotational entropy values for sn=1,12:

 non-linear molecules -----------------------------------
|  sn= 1 | S(rot)=       0.01646965 Eh     10.33 kcal/mol|
|  sn= 2 | S(rot)=       0.01581114 Eh      9.92 kcal/mol|
|  sn= 3 | S(rot)=       0.01542593 Eh      9.68 kcal/mol|
|  sn= 4 | S(rot)=       0.01515262 Eh      9.51 kcal/mol|
|  sn= 5 | S(rot)=       0.01494062 Eh      9.38 kcal/mol|
|  sn= 6 | S(rot)=       0.01476741 Eh      9.27 kcal/mol|
|  sn= 7 | S(rot)=       0.01462096 Eh      9.17 kcal/mol|
|  sn= 8 | S(rot)=       0.01449410 Eh      9.10 kcal/mol|
|  sn= 9 | S(rot)=       0.01438220 Eh      9.02 kcal/mol|
|  sn=10 | S(rot)=       0.01428211 Eh      8.96 kcal/mol|
|  sn=11 | S(rot)=       0.01419156 Eh      8.91 kcal/mol|
|  sn=12 | S(rot)=       0.01410889 Eh      8.85 kcal/mol|
 linear molecules ---------------------------------------
|  Dinfh | S(rot)=       0.01025248 Eh      6.43 kcal/mol|
|  Cinfv | S(rot)=       0.01091100 Eh      6.85 kcal/mol|
 --------------------------------------------------------


-------------------
GIBBS FREE ENERGY
-------------------

The Gibbs free energy is G = H - T*S

Total enthalpy                    ...  -1146.24703398 Eh 
Total entropy correction          ...     -0.09824031 Eh    -61.65 kcal/mol
-----------------------------------------------------------------------
Final Gibbs free energy         ...  -1146.34527429 Eh

For completeness - the Gibbs free energy minus the electronic energy
G-E(el)                           ...      0.31921326 Eh    200.31 kcal/mol


Maximum memory used throughout the entire PROP-calculation: 433.2 MB

--------------------------------
SUGGESTED CITATIONS FOR THIS RUN
--------------------------------

Below you find a list of papers that are relevant to this ORCA run
We neither can nor want to force you to cite these papers, but we appreciate if you do
You receive ORCA, which is the product of decades of hard work by many enthusiastic individuals, for free
The only thing we kindly ask in return is that you cite our papers,
We deeply appreciate it, if you show your appreciation for ORCA by not just citing the generic ORCA reference.

Please note that relegating all ORCA citations to the supporting information does *not* help us.
SI sections are not indexed - citations you put there will not count into any citation statistics
But we need these citations in order to attract the funding resources that allow us to do what we are doing

Therefore, if you are a happy ORCA user, please consider citing a few of the papers listed below in the main body of your paper

In addition to the list printed below, the program has created the file Opt_15H2O_0.bibtex that contains the list in bibtex format
You can import this file easily into all common literature databanks and citation aid programs


List of essential papers. We consider these as the minimum necessary citations

  1. Neese,F.
     Software update: the ORCA program system, version 5.0
     WIRES Comput. Molec. Sci., 2022 12(1)e1606
     doi.org/10.1002/wcms.1606

List of papers to cite with high priority. The work reported in these papers was absolutely
necessary for this run to complete.
Our perspective: the developers of density functionals and basis sets usually get cited in chemistry papers
Good! But without the algorithms to do something with them, the functionals or basis sets would not do anything.
Hence, in our opinion, the algorithm design and method developments papers are equally worthy of getting cited

  1. Neese,F.
     An improvement of the resolution of the identity approximation for the formation of the Coulomb matrix
     J. Comp. Chem., 2003 24(14)1740-1747
     doi.org/10.1002/jcc.10318
  2. Neese,F.; Wennmohs,F.; Hansen,A.; Becker,U.
     Efficient, approximate and parallel Hartree-Fock and hybrid DFT calculations. A 'chain-of-spheres' algorithm for the Hartree-Fock exchange
     Chem. Phys., 2009 356(1-3)98-109
     doi.org/10.1016/j.chemphys.2008.10.036
  3. Bykov,D.; Petrenko,T.; Izsak,R.; Kossmann,S.; Becker,U.; Valeev,E.; Neese,F.
     Efficient implementation of the analytic second derivatives of Hartree-Fock and hybrid DFT energies: a detailed analysis of different approximations
     Molec. Phys., 2015 113 1961-1977
     doi.org/10.1080/00268976.2015.1025114
  4. Helmich-Paris,B.; de Souza,B.; Neese,F.; Izsák,R.
     An improved chain of spheres for exchange algorithm
     J. Chem. Phys., 2021 155 104109
     doi.org/doi: 10.1063/5.0058766.
  5. Neese,F.
     The SHARK Integral Generation and Digestion System
     J. Comp. Chem., 2022  1-16
     doi.org/10.1002/jcc.26942
  6. Caldeweyher,E.; Bannwarth,C.; Grimme,S.
     Extension of the D3 dispersion coefficient model
     J. Chem. Phys., 2017 147 034112-XXXX
     doi.org/10.1063/1.4993215
  7. Caldeweyher,E.; Ehlert,S.; Hansen,A.; Neugebauer,H.; Spicher,S.; Bannwarth,C.; Grimme,S.
     A generally applicable atomic-charge dependent London dispersion correction
     J. Chem. Phys., 2019 150 154122-XXXX
     doi.org/10.1063/1.5090222
  8. Caldeweyher,E.; Mewes,J.; Ehlert,S.; Grimme,S.
     Extension and evaluation of the D4 London-dispersion model for periodic systems
     Phys. Chem. Chem. Phys., 2020 22(16)8499-8512
     doi.org/10.1039/D0CP00502A

List of suggested additional citations. These are papers that are important in the 'surrounding' of 
of this run, or papers that preceded the highly important papers. If you like your results we are grateful for a citation.

  1. Izsak,R.; Neese,F.
     An overlap fitted chain of spheres exchange method
     J. Chem. Phys., 2011 135 144105
     doi.org/10.1063/1.3646921
  2. Izsak,R.; Hansen,A.; Neese,F.
     The resolution of identity and chain of spheres approximations for the LPNO-CCSD singles Fock term
     Molec. Phys., 2012 110 2413-2417
     doi.org/10.1080/00268976.2012.687466
  3. Neese,F.
     The ORCA program system
     WIRES Comput. Molec. Sci., 2012 2(1)73-78
     doi.org/10.1002/wcms.81
  4. Izsak,R.; Neese,F.; Klopper,W.
     Robust fitting techniques in the chain of spheres approximation to the Fock exchange: The role of the complementary space
     J. Chem. Phys., 2013 139 
     doi.org/10.1063/1.4819264
  5. Neese,F.
     Software update: the ORCA program system, version 4.0
     WIRES Comput. Molec. Sci., 2018 8(1)1-6
     doi.org/10.1002/wcms.1327
  6. Neese,F.; Wennmohs,F.; Becker,U.; Riplinger,C.
     The ORCA quantum chemistry program package
     J. Chem. Phys., 2020 152 Art. No. L224108
     doi.org/10.1063/5.0004608

List of optional additional citations

  1. Neese,F.
     Approximate second-order SCF convergence for spin unrestricted wavefunctions
     Chem. Phys. Lett., 2000 325(1-3)93-98
     doi.org/10.1016/s0009-2614(00)00662-x

Timings for individual modules:

Sum of individual times          ...     1666.548 sec (=  27.776 min)
Startup calculation              ...       20.156 sec (=   0.336 min)   1.2 %
SCF iterations                   ...       83.067 sec (=   1.384 min)   5.0 %
Property integrals               ...      379.644 sec (=   6.327 min)  22.8 %
SCF Response                     ...      657.497 sec (=  10.958 min)  39.5 %
Property calculations            ...      526.183 sec (=   8.770 min)  31.6 %
                             ****ORCA TERMINATED NORMALLY****
TOTAL RUN TIME: 0 days 0 hours 27 minutes 49 seconds 255 msec
