
                                 *****************
                                 * O   R   C   A *
                                 *****************

                                            #,                                       
                                            ###                                      
                                            ####                                     
                                            #####                                    
                                            ######                                   
                                           ########,                                 
                                     ,,################,,,,,                         
                               ,,#################################,,                 
                          ,,##########################################,,             
                       ,#########################################, ''#####,          
                    ,#############################################,,   '####,        
                  ,##################################################,,,,####,       
                ,###########''''           ''''###############################       
              ,#####''   ,,,,##########,,,,          '''####'''          '####       
            ,##' ,,,,###########################,,,                        '##       
           ' ,,###''''                  '''############,,,                           
         ,,##''                                '''############,,,,        ,,,,,,###''
      ,#''                                            '''#######################'''  
     '                                                          ''''####''''         
             ,#######,   #######,   ,#######,      ##                                
            ,#'     '#,  ##    ##  ,#'     '#,    #''#        ,####,   ,####,        
            ##       ##  ##   ,#'  ##            #'  '#       #'       #'  '#        
            ##       ##  #######   ##           ,######,      #####,   #    #        
            '#,     ,#'  ##    ##  '#,     ,#' ,#      #,     #,   #   #,  ,#        
             '#######'   ##     ##  '#######'  #'      '#     '####' # '####'        



                #########################################################
                #                        -***-                          #
                #          Department of theory and spectroscopy        #
                #                                                       #
                #                      Frank Neese                      #
                #                                                       #
                #     Directorship, Architecture, Infrastructure        #
                #                    SHARK, DRIVERS                     #
                #        Core code/Algorithms in most modules           #
                #                                                       #
                #        Max Planck Institute fuer Kohlenforschung      #
                #                Kaiser Wilhelm Platz 1                 #
                #                 D-45470 Muelheim/Ruhr                 #
                #                      Germany                          #
                #                                                       #
                #                  All rights reserved                  #
                #                        -***-                          #
                #########################################################


                         Program Version 6.0.0  -   RELEASE  -


 With contributions from (in alphabetic order):
   Daniel Aravena         : Magnetic Suceptibility
   Michael Atanasov       : Ab Initio Ligand Field Theory (pilot matlab implementation)
   Alexander A. Auer      : GIAO ZORA, VPT2 properties, NMR spectrum
   Ute Becker             : All parallelization in ORCA, NUMFREQ, NUMCALC
   Giovanni Bistoni       : ED, misc. LED, open-shell LED, HFLD
   Martin Brehm           : Molecular dynamics
   Dmytro Bykov           : pre 5.0 version of the SCF Hessian
   Marcos Casanova-Páez   : Triplet and SCS-CIS(D). UHF-(DLPNO)-IP/EA/STEOM-CCSD. UHF-CVS-IP/STEOM-CCSD
   Vijay G. Chilkuri      : MRCI spin determinant printing, contributions to CSF-ICE
   Pauline Colinet        : FMM embedding
   Dipayan Datta          : RHF DLPNO-CCSD density
   Achintya Kumar Dutta   : EOM-CC, STEOM-CC
   Nicolas Foglia         : Exact transition moments, OPA infrastructure, MCD improvements
   Dmitry Ganyushin       : Spin-Orbit,Spin-Spin,Magnetic field MRCI
   Miquel Garcia          : C-PCM and meta-GGA Hessian, CCSD/C-PCM, Gaussian charge scheme
   Tiago L. C. Gouveia    : GS-ROHF, GS-ROCIS
   Yang Guo               : DLPNO-NEVPT2, F12-NEVPT2, CIM, IAO-localization
   Andreas Hansen         : Spin unrestricted coupled pair/coupled cluster methods
   Ingolf Harden          : AUTO-CI MPn and infrastructure 
   Benjamin Helmich-Paris : MC-RPA, TRAH-(SCF,CASSCF), AVAS, COSX integrals, SCF dyn. polar.
   Lee Huntington         : MR-EOM, pCC
   Robert Izsak           : Overlap fitted RIJCOSX, COSX-SCS-MP3, EOM
   Riya Kayal             : Wick's Theorem for AUTO-CI, AUTO-CI UHF-CCSDT
   Emily Kempfer          : AUTO-CI, RHF CISDT and CCSDT
   Christian Kollmar      : KDIIS, OOCD, Brueckner-CCSD(T), CCSD density, CASPT2, CASPT2-K, improved NEVPT2
   Axel Koslowski         : Symmetry handling
   Simone Kossmann        : Meta GGA functionals, TD-DFT gradient, OOMP2, (MP2 Hessian; deprecated post 5.0)
   Lucas Lang             : DCDCAS
   Marvin Lechner         : AUTO-CI (C++ implementation), FIC-MRCC
   Spencer Leger          : CASSCF response
   Dagmar Lenk            : GEPOL surface, SMD, ORCA-2-JSON
   Dimitrios Liakos       : Extrapolation schemes; Compound Job, initial MDCI parallelization
   Dimitrios Manganas     : Further ROCIS development; embedding schemes. LFT, Crystal Embedding
   Dimitrios Pantazis     : SARC Basis sets
   Anastasios Papadopoulos: AUTO-CI, single reference methods and gradients
   Taras Petrenko         : pre 6.0 DFT Hessian and TD-DFT gradient, (ASA, deprecated), ECA, 1-Electron XAS/XES, NRVS
   Peter Pinski           : DLPNO-MP2, DLPNO-MP2 Gradient
   Christoph Reimann      : Effective Core Potentials
   Marius Retegan         : Local ZFS, SOC
   Christoph Riplinger    : Optimizer, TS searches, QM/MM, DLPNO-CCSD(T), (RO)-DLPNO pert. Triples
   Michael Roemelt        : Original ROCIS implementation
   Masaaki Saitow         : Open-shell DLPNO-CCSD energy and density
   Barbara Sandhoefer     : DKH picture change effects
   Kantharuban Sivalingam : CASSCF convergence/infrastructure, NEVPT2 and variants, FIC-MRCI
   Bernardo de Souza      : ESD, SOC TD-DFT
   Georgi Stoychev        : AutoAux, RI-MP2 NMR, DLPNO-MP2 response, X2C
   Van Anh Tran           : RI-MP2 g-tensors
   Willem Van den Heuvel  : Paramagnetic NMR
   Zikuan Wang            : NOTCH, Electric field optimization 
   Frank Wennmohs         : Technical directorship and infrastructure
   Hang Xu                : AUTO-CI-Response properties 


 We gratefully acknowledge several colleagues who have allowed us to
 interface, adapt or use parts of their codes:
   Stefan Grimme, W. Hujo, H. Kruse, P. Pracht,  : VdW corrections, initial TS optimization,
                  C. Bannwarth, S. Ehlert,         DFT functionals, gCP, sTDA/sTD-DF
                  L. Wittmann, M. Mueller
   Ed Valeev, F. Pavosevic, A. Kumar             : LibInt (2-el integral package), F12 methods
   Garnet Chan, S. Sharma, J. Yang, R. Olivares  : DMRG
   Ulf Ekstrom                                   : XCFun DFT Library
   Mihaly Kallay                                 : mrcc  (arbitrary order and MRCC methods)
   Frank Weinhold                                : gennbo (NPA and NBO analysis)
   Simon Mueller                                 : openCOSMO-RS
   Christopher J. Cramer and Donald G. Truhlar   : smd solvation model
   Lars Goerigk                                  : TD-DFT with DH, B97 family of functionals
   V. Asgeirsson, H. Jonsson                     : NEB implementation
   FAccTs GmbH                                   : IRC, NEB, NEB-TS, DLPNO-Multilevel, CI-OPT
                                                   MM, QMMM, 2- and 3-layer-ONIOM, Crystal-QMMM,
                                                   LR-CPCM, SF, NACMEs, symmetry and pop. for TD-DFT,
                                                   nearIR, NL-DFT gradient (VV10), updates on ESD,
                                                   ML-optimized integration grids, MBIS, APM,
                                                   GOAT, DOCKER, SOLVATOR, interface openCOSMO-RS
   S Lehtola, MJT Oliveira, MAL Marques          : LibXC Library
   Liviu Ungur et al                             : ANISO software


 Your calculation uses the libint2 library for the computation of 2-el integrals
 For citations please refer to: http://libint.valeyev.net

 Your ORCA version has been built with support for libXC version: 6.2.2
 For citations please refer to: https://libxc.gitlab.io

 This ORCA versions uses:
   CBLAS   interface :  Fast vector & matrix operations
   LAPACKE interface :  Fast linear algebra routines
   SCALAPACK package :  Parallel linear algebra routines
   Shared memory     :  Shared parallel matrices
   BLAS/LAPACK       :  OpenBLAS 0.3.27  USE64BITINT DYNAMIC_ARCH NO_AFFINITY SkylakeX SINGLE_THREADED
        Core in use  :  SkylakeX
   Copyright (c) 2011-2014, The OpenBLAS Project


NOTE: MaxCore=9000 MB was set to SCF,MP2,MDCI,CIPSI,MRCI and CIS
      => If you want to overwrite this, your respective input block should be placed after the MaxCore statement
Your calculation utilizes the atom-pairwise dispersion correction
based on EEQ partial charges (D4)


Warning: RI is on but no J-basis has been assigned. Assigning Def2/J (nothing to worry about!)
================================================================================

----- Orbital basis set information -----
Your calculation utilizes the basis: def2-TZVP
   F. Weigend and R. Ahlrichs, Phys. Chem. Chem. Phys. 7, 3297 (2005).

----- AuxJ basis set information -----
Your calculation utilizes the auxiliary basis: def2/J
   F. Weigend, Phys. Chem. Chem. Phys. 8, 1057 (2006).

================================================================================
                                        WARNINGS
                       Please study these warnings very carefully!
================================================================================


================================================================================
                                       INPUT FILE
================================================================================
NAME = H_scan_0.96.inp
|  1> ! B3LYP D4 def2-TZVP VeryTightSCF 
|  2> 
|  3> %pal
|  4>    nprocs 8
|  5> end
|  6> 
|  7> %maxcore 9000
|  8> 
|  9> %geom
| 10>    MaxIter 600
| 11> end
| 12> 
| 13> * xyz 0 1
| 14> O       -3.590911000      3.401148000      0.030431000
| 15> H       -3.400145000      2.457871000     -0.097306000
| 16> H       -4.003159000      3.691935000     -0.788505000
| 17> O       -2.924634000      0.582336000     -0.124907000
| 18> H       -1.979662000      0.486433000      0.038299000
| 19> H       -3.361074371   0.128239641   0.599604076
| 20> *
| 21> 
| 22>                          ****END OF INPUT****
================================================================================

                       ****************************
                       * Single Point Calculation *
                       ****************************

---------------------------------
CARTESIAN COORDINATES (ANGSTROEM)
---------------------------------
  O     -3.590911    3.401148    0.030431
  H     -3.400145    2.457871   -0.097306
  H     -4.003159    3.691935   -0.788505
  O     -2.924634    0.582336   -0.124907
  H     -1.979662    0.486433    0.038299
  H     -3.361074    0.128240    0.599604

----------------------------
CARTESIAN COORDINATES (A.U.)
----------------------------
  NO LB      ZA    FRAG     MASS         X           Y           Z
   0 O     8.0000    0    15.999   -6.785838    6.427238    0.057506
   1 H     1.0000    0     1.008   -6.425343    4.644703   -0.183882
   2 H     1.0000    0     1.008   -7.564874    6.976746   -1.490059
   3 O     8.0000    0    15.999   -5.526757    1.100456   -0.236040
   4 H     1.0000    0     1.008   -3.741019    0.919225    0.072375
   5 H     1.0000    0     1.008   -6.351510    0.242338    1.133087

--------------------------------
INTERNAL COORDINATES (ANGSTROEM)
--------------------------------
 O      0   0   0     0.000000000000     0.00000000     0.00000000
 H      1   0   0     0.970814043293     0.00000000     0.00000000
 H      1   2   0     0.961853245027   105.42265866     0.00000000
 O      2   1   3     1.935072107842   172.70430080   179.37348441
 H      4   2   1     0.963745643118   109.57130100   303.01167290
 H      4   2   1     0.959999999970   109.63228901    58.61067308

---------------------------
INTERNAL COORDINATES (A.U.)
---------------------------
 O      0   0   0     0.000000000000     0.00000000     0.00000000
 H      1   0   0     1.834572668788     0.00000000     0.00000000
 H      1   2   0     1.817639214125   105.42265866     0.00000000
 O      2   1   3     3.656756333211   172.70430080   179.37348441
 H      4   2   1     1.821215328253   109.57130100   303.01167290
 H      4   2   1     1.814137088508   109.63228901    58.61067308

---------------------
BASIS SET INFORMATION
---------------------
There are 2 groups of distinct atoms

 Group   1 Type O   : 11s6p2d1f contracted to 5s3p2d1f pattern {62111/411/11/1}
 Group   2 Type H   : 5s1p contracted to 3s1p pattern {311/1}

Atom   0O    basis set group =>   1
Atom   1H    basis set group =>   2
Atom   2H    basis set group =>   2
Atom   3O    basis set group =>   1
Atom   4H    basis set group =>   2
Atom   5H    basis set group =>   2
---------------------------------
AUXILIARY/J BASIS SET INFORMATION
---------------------------------
There are 2 groups of distinct atoms

 Group   1 Type O   : 12s5p4d2f1g contracted to 6s4p3d1f1g pattern {711111/2111/211/2/1}
 Group   2 Type H   : 5s2p1d contracted to 3s1p1d pattern {311/2/1}

Atom   0O    basis set group =>   1
Atom   1H    basis set group =>   2
Atom   2H    basis set group =>   2
Atom   3O    basis set group =>   1
Atom   4H    basis set group =>   2
Atom   5H    basis set group =>   2


           ************************************************************
           *        Program running with 8 parallel MPI-processes     *
           *              working on a common directory               *
           ************************************************************
------------------------------------------------------------------------------
                             ORCA STARTUP CALCULATIONS
                           -- RI-GTO INTEGRALS CHOSEN --
------------------------------------------------------------------------------
------------------------------------------------------------------------------
                   ___                                                        
                  /   \      - P O W E R E D   B Y -                         
                 /     \                                                     
                 |  |  |   _    _      __       _____    __    __             
                 |  |  |  | |  | |    /  \     |  _  \  |  |  /  |          
                  \  \/   | |  | |   /    \    | | | |  |  | /  /          
                 / \  \   | |__| |  /  /\  \   | |_| |  |  |/  /          
                |  |  |   |  __  | /  /__\  \  |    /   |      \           
                |  |  |   | |  | | |   __   |  |    \   |  |\   \          
                \     /   | |  | | |  |  |  |  | |\  \  |  | \   \       
                 \___/    |_|  |_| |__|  |__|  |_| \__\ |__|  \__/        
                                                                              
                      - O R C A' S   B I G   F R I E N D -                    
                                      &                                       
                       - I N T E G R A L  F E E D E R -                       
                                                                              
 v1 FN, 2020, v2 2021, v3 2022-2024                                           
------------------------------------------------------------------------------


----------------------
SHARK INTEGRAL PACKAGE
----------------------

Number of atoms                             ...      6
Number of basis functions                   ...     86
Number of shells                            ...     38
Maximum angular momentum                    ...      3
Integral batch strategy                     ... SHARK/LIBINT Hybrid
RI-J (if used) integral strategy            ... SPLIT-RIJ (Revised 2003 algorithm where possible)
Printlevel                                  ...      1
Contraction scheme used                     ... SEGMENTED contraction
Prescreening option                         ... SCHWARTZ
   Thresh                                   ... 1.000e-12
   Tcut                                     ... 1.000e-14
   Tpresel                                  ... 1.000e-14 
Coulomb Range Separation                    ... NOT USED
Exchange Range Separation                   ... NOT USED
Multipole approximations                    ... NOT USED
Finite Nucleus Model                        ... NOT USED
CABS basis                                  ... NOT available
Auxiliary Coulomb fitting basis             ... AVAILABLE
   # of basis functions in Aux-J            ...    142
   # of shells in Aux-J                     ...     50
   Maximum angular momentum in Aux-J        ...      4
Auxiliary J/K fitting basis                 ... NOT available
Auxiliary Correlation fitting basis         ... NOT available
Auxiliary 'external' fitting basis          ... NOT available

Checking pre-screening integrals            ... done (  0.2 sec) Dimension = 38
Check shell pair data                       ... done (  0.2 sec)
Shell pair information
Shell pair cut-off parameter TPreSel        ...   1.0e-14
Total number of shell pairs                 ...       741
Shell pairs after pre-screening             ...       719
Total number of primitive shell pairs       ...      2136
Primitive shell pairs kept                  ...      1734
          la=0 lb=0:    241 shell pairs
          la=1 lb=0:    216 shell pairs
          la=1 lb=1:     55 shell pairs
          la=2 lb=0:     84 shell pairs
          la=2 lb=1:     40 shell pairs
          la=2 lb=2:     10 shell pairs
          la=3 lb=0:     42 shell pairs
          la=3 lb=1:     20 shell pairs
          la=3 lb=2:      8 shell pairs
          la=3 lb=3:      3 shell pairs

Calculating one electron integrals          ... done (  0.8 sec)
Calculating RI/J V-Matrix + Cholesky decomp.... done (  3.4 sec)
Calculating Nuclear repulsion               ... done (  0.0 sec) ENN=     36.628411165329 Eh

Diagonalization of the overlap matrix:
Smallest eigenvalue                        ... 5.963e-03
Time for diagonalization                   ...    0.220 sec
Threshold for overlap eigenvalues          ... 1.000e-07
Number of eigenvalues below threshold      ... 0
Time for construction of square roots      ...    0.602 sec
Total time needed                          ...    2.080 sec

-------------------
DFT GRID GENERATION
-------------------

General Integration Accuracy     IntAcc      ... 4.388
Radial Grid Type                 RadialGrid  ... OptM3 with GC (2021)
Angular Grid (max. ang.)         AngularGrid ... 4 (Lebedev-302)
Angular grid pruning method      GridPruning ... 4 (adaptive)
Weight generation scheme         WeightScheme... mBecke (2022)
Basis function cutoff            BFCut       ... 1.0000e-12
Integration weight cutoff        WCut        ... 1.0000e-14
Partially contracted basis set               ... off
Rotationally invariant grid construction     ... off
Angular grids for H and He will be reduced by one unit

Total number of grid points                  ...    25437
Total number of batches                      ...      400
Average number of points per batch           ...       63
Average number of grid points per atom       ...     4240

--------------------
COSX GRID GENERATION
--------------------

GRIDX 1
-------
General Integration Accuracy     IntAcc      ... 3.816
Radial Grid Type                 RadialGrid  ... OptM3 with GC (2021)
Angular Grid (max. ang.)         AngularGrid ... 1 (Lebedev-50)
Angular grid pruning method      GridPruning ... 4 (adaptive)
Weight generation scheme         WeightScheme... mBecke (2022)
Basis function cutoff            BFCut       ... 1.0000e-12
Integration weight cutoff        WCut        ... 1.0000e-14
Partially contracted basis set               ... on
Rotationally invariant grid construction     ... off
Angular grids for H and He will be reduced by one unit

Total number of grid points                  ...     3312
Total number of batches                      ...       29
Average number of points per batch           ...      114
Average number of grid points per atom       ...      552
UseSFitting                                  ... on

GRIDX 2
-------
General Integration Accuracy     IntAcc      ... 4.020
Radial Grid Type                 RadialGrid  ... OptM3 with GC (2021)
Angular Grid (max. ang.)         AngularGrid ... 2 (Lebedev-110)
Angular grid pruning method      GridPruning ... 4 (adaptive)
Weight generation scheme         WeightScheme... mBecke (2022)
Basis function cutoff            BFCut       ... 1.0000e-12
Integration weight cutoff        WCut        ... 1.0000e-14
Partially contracted basis set               ... on
Rotationally invariant grid construction     ... off
Angular grids for H and He will be reduced by one unit

Total number of grid points                  ...     6972
Total number of batches                      ...       58
Average number of points per batch           ...      120
Average number of grid points per atom       ...     1162
UseSFitting                                  ... on

GRIDX 3
-------
General Integration Accuracy     IntAcc      ... 4.338
Radial Grid Type                 RadialGrid  ... OptM3 with GC (2021)
Angular Grid (max. ang.)         AngularGrid ... 3 (Lebedev-194)
Angular grid pruning method      GridPruning ... 4 (adaptive)
Weight generation scheme         WeightScheme... mBecke (2022)
Basis function cutoff            BFCut       ... 1.0000e-12
Integration weight cutoff        WCut        ... 1.0000e-14
Partially contracted basis set               ... on
Rotationally invariant grid construction     ... off
Angular grids for H and He will be reduced by one unit

Total number of grid points                  ...    15332
Total number of batches                      ...      124
Average number of points per batch           ...      123
Average number of grid points per atom       ...     2555
UseSFitting                                  ... on
Initializing property integral containers    ... done (  1.2 sec)

SHARK setup successfully completed in  30.5 seconds

Maximum memory used throughout the entire STARTUP-calculation: 13.8 MB


           ************************************************************
           *        Program running with 8 parallel MPI-processes     *
           *              working on a common directory               *
           ************************************************************
-------------------------------------------------------------------------------
                                 ORCA GUESS
                   Start orbitals & Density for SCF / CASSCF
-------------------------------------------------------------------------------

------------
SCF SETTINGS
------------
Hamiltonian:
 Density Functional     Method          .... DFT(GTOs)
 Exchange Functional    Exchange        .... B88
   X-Alpha parameter    XAlpha          ....  0.666667
   Becke's b parameter  XBeta           ....  0.004200
 Correlation Functional Correlation     .... LYP
 LDA part of GGA corr.  LDAOpt          .... VWN-5
 Gradients option       PostSCFGGA      .... off
 Hybrid DFT is turned on
   Fraction HF Exchange ScalHFX         ....  0.200000
   Scaling of DF-GGA-X  ScalDFX         ....  0.720000
   Scaling of DF-GGA-C  ScalDFC         ....  0.810000
   Scaling of DF-LDA-C  ScalLDAC        ....  1.000000
   Perturbative correction              ....  0.000000
   NL short-range parameter             ....  4.800000
 RI-approximation to the Coulomb term is turned on
   Number of AuxJ basis functions       .... 142
   RIJ-COSX (HFX calculated with COS-X)).... on


General Settings:
 Integral files         IntName         .... H_scan_0.96
 Hartree-Fock type      HFTyp           .... RHF
 Total Charge           Charge          ....    0
 Multiplicity           Mult            ....    1
 Number of Electrons    NEL             ....   20
 Basis Dimension        Dim             ....   86
 Nuclear Repulsion      ENuc            ....     36.6284111653 Eh

Convergence Acceleration:
 AO-DIIS                CNVDIIS         .... on
   Start iteration      DIISMaxIt       ....    12
   Startup error        DIISStart       ....  0.200000
   # of expansion vecs  DIISMaxEq       ....     5
   Bias factor          DIISBfac        ....   1.050
   Max. coefficient     DIISMaxC        ....  10.000
 MO-DIIS                CNVKDIIS        .... off
 Trust-Rad. Augm. Hess. CNVTRAH         .... auto
   Auto Start mean grad. ratio tolernc. ....  1.125000
   Auto Start start iteration           ....    50
   Auto Start num. interpolation iter.  ....    10
   Max. Number of Micro iterations      ....    24
   Max. Number of Macro iterations      .... Maxiter - #DIIS iter
   Number of Davidson start vectors     ....     2
   Converg. threshold    (grad. norm)   ....   2.000e-06
   Grad. Scal. Fac. for Micro threshold ....   0.100
   Minimum threshold for Micro iter.    ....   1.000e-02
   NR start threshold (gradient norm)   ....   1.000e-04
   Initial trust radius                 ....   0.400
   Minimum AH scaling param. (alpha)    ....   1.000
   Maximum AH scaling param. (alpha)    .... 1000.000
   Quad. conv. algorithm                .... NR
   White noise on init. David. guess    .... on
   Maximum white noise                  ....   0.010
   Pseudo random numbers                .... off
   Inactive MOs                         .... canonical
   Orbital update algorithm             .... Taylor
   Preconditioner                       .... Diag
   Full preconditioner red. dimension   ....   250
 SOSCF                  CNVSOSCF        .... on
   Start iteration      SOSCFMaxIt      ....   150
   Startup grad/error   SOSCFStart      ....  0.003300
   Hessian update       SOSCFHessUp     .... L-BFGS
 Level Shifting         CNVShift        .... on
   Level shift para.    LevelShift      ....    0.2500
   Turn off err/grad.   ShiftErr        ....    0.0010
 Zerner damping         CNVZerner       .... off
 Static damping         CNVDamp         .... on
   Fraction old density DampFac         ....    0.7000
   Max. Damping (<1)    DampMax         ....    0.9800
   Min. Damping (>=0)   DampMin         ....    0.0000
   Turn off err/grad.   DampErr         ....    0.1000

SCF Procedure:
 Maximum # iterations   MaxIter         ....   125
 SCF integral mode      SCFMode         .... Direct
   Integral package                     .... SHARK and LIBINT hybrid scheme
 Reset frequency        DirectResetFreq ....    20
 Integral Threshold     Thresh          ....  1.000e-12 Eh
 Primitive CutOff       TCut            ....  1.000e-14 Eh

Convergence Tolerance:
 Convergence Check Mode ConvCheckMode   .... Total+1el-Energy
 Convergence forced     ConvForced      .... 0
 Energy Change          TolE            ....  1.000e-09 Eh
 1-El. energy change                    ....  1.000e-06 Eh
 Orbital Gradient       TolG            ....  2.000e-06
 Orbital Rotation angle TolX            ....  2.000e-06
 DIIS Error             TolErr          ....  1.000e-08

------------------------------
INITIAL GUESS: MODEL POTENTIAL
------------------------------
Loading Hartree-Fock densities                     ... done
Calculating cut-offs                               ... done
Initializing the effective Hamiltonian             ... done
Setting up the integral package (SHARK)            ... done
Starting the Coulomb interaction                   ... done (   2.6 sec)
Making the grid                                    ... done (   4.2 sec)
Mapping shells                                     ... done
Starting the XC term evaluation                    ... done (   0.4 sec)
  promolecular density results
     # of electrons  =     19.998226303
     EX              =    -17.568437634
     EC              =     -0.674674914
     EX+EC           =    -18.243112548
Transforming the Hamiltonian                       ... done (   3.1 sec)
Diagonalizing the Hamiltonian                      ... done (   2.0 sec)
Back transforming the eigenvectors                 ... done (   0.3 sec)
Now organizing SCF variables                       ... done
                      ------------------
                      INITIAL GUESS DONE (  16.0 sec)
                      ------------------
             **** ENERGY FILE WAS UPDATED (H_scan_0.96.en.tmp) ****
Finished Guess after  22.7 sec
Maximum memory used throughout the entire GUESS-calculation: 7.6 MB


           ************************************************************
           *        Program running with 8 parallel MPI-processes     *
           *              working on a common directory               *
           ************************************************************

-------------------------------------------------------------------------------------------
                                      ORCA LEAN-SCF
                              memory conserving SCF solver
-------------------------------------------------------------------------------------------

----------------------------------------D-I-I-S--------------------------------------------
Iteration    Energy (Eh)           Delta-E    RMSDP     MaxDP     DIISErr   Damp  Time(sec)
-------------------------------------------------------------------------------------------
               ***  Starting incremental Fock matrix formation  ***
    1    -152.6653030984896304     0.00e+00  3.89e-03  5.53e-02  3.52e-01  0.700  42.8
    2    -152.7635089261249277    -9.82e-02  2.27e-03  3.22e-02  1.41e-01  0.700  35.9
                               ***Turning on AO-DIIS***
    3    -152.7941137850709197    -3.06e-02  5.99e-04  6.28e-03  2.64e-02  0.700  42.1
    4    -152.8140318075858204    -1.99e-02  6.53e-04  7.98e-03  7.90e-03  0.000  41.4
    5    -152.8608126336427517    -4.68e-02  2.32e-04  3.03e-03  7.84e-03  0.000  38.3
                              *** Initializing SOSCF ***
---------------------------------------S-O-S-C-F--------------------------------------
Iteration    Energy (Eh)           Delta-E    RMSDP     MaxDP     MaxGrad    Time(sec)
--------------------------------------------------------------------------------------
    6    -152.8609317475892340    -1.19e-04  6.31e-05  8.18e-04  1.05e-03    47.6
               *** Restarting incremental Fock matrix formation ***
    7    -152.8609257565370854     5.99e-06  3.62e-05  4.67e-04  1.38e-04    32.3
    8    -152.8609261668829618    -4.10e-07  1.18e-05  1.52e-04  1.01e-04    30.8
    9    -152.8609262070007162    -4.01e-08  8.00e-06  1.02e-04  7.68e-05    29.5
   10    -152.8609262686920260    -6.17e-08  3.39e-07  4.17e-06  2.38e-06    30.6
   11    -152.8609262687589876    -6.70e-11  1.16e-07  1.57e-06  1.50e-06    29.3
                 **** Energy Check signals convergence ****

               *****************************************************
               *                     SUCCESS                       *
               *           SCF CONVERGED AFTER  11 CYCLES          *
               *****************************************************

Recomputing exchange energy using gridx3       ... done (    4.712 sec)
Old exchange energy                            :     -3.572701649 Eh
New exchange energy                            :     -3.572689239 Eh
Exchange energy change after final integration :      0.000012410 Eh
Total energy after final integration           :   -152.860913859 Eh
             **** ENERGY FILE WAS UPDATED (H_scan_0.96.en.tmp) ****

----------------
TOTAL SCF ENERGY
----------------

Total Energy       :       -152.86091385864032 Eh           -4159.55693 eV

Components:
Nuclear Repulsion  :         36.62841116532853 Eh             996.70974 eV
Electronic Energy  :       -189.48933743408753 Eh           -5156.26701 eV
One Electron Energy:       -282.72856371243995 Eh           -7693.43535 eV
Two Electron Energy:         93.23922627835242 Eh            2537.16833 eV

Virial components:
Potential Energy   :       -305.18947701349151 Eh           -8304.62787 eV
Kinetic Energy     :        152.32856315485120 Eh            4145.07093 eV
Virial Ratio       :          2.00349475300471

DFT components:
N(Alpha)           :       10.000001153003 electrons
N(Beta)            :       10.000001153003 electrons
N(Total)           :       20.000002306006 electrons
E(X)               :      -14.235263140904 Eh       
E(C)               :       -0.807253101569 Eh       
E(XC)              :      -15.042516242472 Eh       

---------------
SCF CONVERGENCE
---------------

  Last Energy change         ...    6.6962e-11  Tolerance :   1.0000e-09
  Last MAX-Density change    ...    1.5713e-06  Tolerance :   1.0000e-08
  Last RMS-Density change    ...    1.1566e-07  Tolerance :   1.0000e-09
  Last DIIS Error            ...    1.0473e-03  Tolerance :   1.0000e-08
  Last Orbital Gradient      ...    1.4952e-06  Tolerance :   2.0000e-06
  Last Orbital Rotation      ...    1.0821e-06  Tolerance :   2.0000e-06


----------------
ORBITAL ENERGIES
----------------

  NO   OCC          E(Eh)            E(eV) 
   0   2.0000     -19.154435      -521.2187 
   1   2.0000     -19.090812      -519.4874 
   2   2.0000      -1.041207       -28.3327 
   3   2.0000      -0.977613       -26.6022 
   4   2.0000      -0.561213       -15.2714 
   5   2.0000      -0.504660       -13.7325 
   6   2.0000      -0.420778       -11.4500 
   7   2.0000      -0.360915        -9.8210 
   8   2.0000      -0.338455        -9.2098 
   9   2.0000      -0.284334        -7.7371 
  10   0.0000      -0.000854        -0.0233 
  11   0.0000       0.060601         1.6490 
  12   0.0000       0.078186         2.1275 
  13   0.0000       0.187517         5.1026 
  14   0.0000       0.323287         8.7971 
  15   0.0000       0.344912         9.3855 
  16   0.0000       0.381536        10.3821 
  17   0.0000       0.403397        10.9770 
  18   0.0000       0.440654        11.9908 
  19   0.0000       0.463714        12.6183 
  20   0.0000       0.467653        12.7255 
*Only the first 10 virtual orbitals were printed.

                    ********************************
                    * MULLIKEN POPULATION ANALYSIS *
                    ********************************

-----------------------
MULLIKEN ATOMIC CHARGES
-----------------------
   0 O :   -0.667140
   1 H :    0.332875
   2 H :    0.306195
   3 O :   -0.640984
   4 H :    0.334952
   5 H :    0.334101
Sum of atomic charges:   -0.0000000

--------------------------------
MULLIKEN REDUCED ORBITAL CHARGES
--------------------------------
  0 O s       :     3.800505  s :     3.800505
      pz      :     1.566564  p :     4.845577
      px      :     1.839692
      py      :     1.439322
      dz2     :     0.006597  d :     0.019773
      dxz     :     0.004505
      dyz     :     0.002841
      dx2y2   :     0.004948
      dxy     :     0.000882
      f0      :     0.000029  f :     0.001284
      f+1     :     0.000348
      f-1     :     0.000182
      f+2     :     0.000064
      f-2     :     0.000152
      f+3     :     0.000202
      f-3     :     0.000308

  1 H s       :     0.613728  s :     0.613728
      pz      :     0.011497  p :     0.053398
      px      :     0.015283
      py      :     0.026618

  2 H s       :     0.645680  s :     0.645680
      pz      :     0.018321  p :     0.048125
      px      :     0.017271
      py      :     0.012532

  3 O s       :     3.800161  s :     3.800161
      pz      :     1.664574  p :     4.819935
      px      :     1.335926
      py      :     1.819435
      dz2     :     0.004465  d :     0.019574
      dxz     :     0.004060
      dyz     :     0.005040
      dx2y2   :     0.004599
      dxy     :     0.001410
      f0      :     0.000036  f :     0.001314
      f+1     :     0.000249
      f-1     :     0.000239
      f+2     :     0.000080
      f-2     :     0.000246
      f+3     :     0.000373
      f-3     :     0.000091

  4 H s       :     0.618127  s :     0.618127
      pz      :     0.013028  p :     0.046922
      px      :     0.019341
      py      :     0.014552

  5 H s       :     0.618494  s :     0.618494
      pz      :     0.018211  p :     0.047404
      px      :     0.012598
      py      :     0.016596



                     *******************************
                     * LOEWDIN POPULATION ANALYSIS *
                     *******************************

----------------------
LOEWDIN ATOMIC CHARGES
----------------------
   0 O :   -0.335134
   1 H :    0.137249
   2 H :    0.148391
   3 O :   -0.275765
   4 H :    0.164000
   5 H :    0.161258

-------------------------------
LOEWDIN REDUCED ORBITAL CHARGES
-------------------------------
  0 O s       :     3.459302  s :     3.459302
      pz      :     1.590434  p :     4.842992
      px      :     1.800097
      py      :     1.452461
      dz2     :     0.010208  d :     0.030461
      dxz     :     0.006596
      dyz     :     0.003957
      dx2y2   :     0.008392
      dxy     :     0.001308
      f0      :     0.000155  f :     0.002380
      f+1     :     0.000645
      f-1     :     0.000516
      f+2     :     0.000105
      f-2     :     0.000244
      f+3     :     0.000243
      f-3     :     0.000472

  1 H s       :     0.688195  s :     0.688195
      pz      :     0.033752  p :     0.174555
      px      :     0.044467
      py      :     0.096336

  2 H s       :     0.690372  s :     0.690372
      pz      :     0.074127  p :     0.161236
      px      :     0.053078
      py      :     0.034032

  3 O s       :     3.451552  s :     3.451552
      pz      :     1.662209  p :     4.790465
      px      :     1.359284
      py      :     1.768972
      dz2     :     0.006312  d :     0.031294
      dxz     :     0.006883
      dyz     :     0.006310
      dx2y2   :     0.009181
      dxy     :     0.002608
      f0      :     0.000074  f :     0.002454
      f+1     :     0.000543
      f-1     :     0.000423
      f+2     :     0.000123
      f-2     :     0.000542
      f+3     :     0.000661
      f-3     :     0.000088

  4 H s       :     0.676487  s :     0.676487
      pz      :     0.038066  p :     0.159513
      px      :     0.078580
      py      :     0.042866

  5 H s       :     0.677437  s :     0.677437
      pz      :     0.069274  p :     0.161305
      px      :     0.036276
      py      :     0.055756



                      *****************************
                      * MAYER POPULATION ANALYSIS *
                      *****************************

  NA   - Mulliken gross atomic population
  ZA   - Total nuclear charge
  QA   - Mulliken gross atomic charge
  VA   - Mayer's total valence
  BVA  - Mayer's bonded valence
  FA   - Mayer's free valence

  ATOM       NA         ZA         QA         VA         BVA        FA
  0 O      8.6671     8.0000    -0.6671     1.7867     1.7867    -0.0000
  1 H      0.6671     1.0000     0.3329     0.9344     0.9344    -0.0000
  2 H      0.6938     1.0000     0.3062     0.9209     0.9209     0.0000
  3 O      8.6410     8.0000    -0.6410     1.8480     1.8480    -0.0000
  4 H      0.6650     1.0000     0.3350     0.9033     0.9033    -0.0000
  5 H      0.6659     1.0000     0.3341     0.9042     0.9042    -0.0000

  Mayer bond orders larger than 0.100000
B(  0-O ,  1-H ) :   0.8704 B(  0-O ,  2-H ) :   0.9159 B(  3-O ,  4-H ) :   0.8949 
B(  3-O ,  5-H ) :   0.8958 

-------
TIMINGS
-------

Total SCF time: 0 days 0 hours 7 min 30 sec 

Total time                  ....     450.465 sec
Sum of individual times     ....     440.555 sec  ( 97.8%)

SCF preparation             ....      12.529 sec  (  2.8%)
Fock matrix formation       ....     188.469 sec  ( 41.8%)
  Startup                   ....      20.610 sec  ( 10.9% of F)
  Split-RI-J                ....      34.772 sec  ( 18.4% of F)
  Chain of spheres X        ....      48.278 sec  ( 25.6% of F)
  XC integration            ....      44.138 sec  ( 23.4% of F)
    XC Preparation          ....       0.000 sec  (  0.0% of XC)
    Basis function eval.    ....       0.102 sec  (  0.2% of XC)
    Density eval.           ....       0.043 sec  (  0.1% of XC)
    XC-Functional eval.     ....       0.028 sec  (  0.1% of XC)
    XC-Potential eval.      ....       0.068 sec  (  0.2% of XC)
Diagonalization             ....       0.000 sec  (  0.0%)
Density matrix formation    ....      23.958 sec  (  5.3%)
Total Energy calculation    ....      32.830 sec  (  7.3%)
Population analysis         ....      16.670 sec  (  3.7%)
Orbital Transformation      ....      10.195 sec  (  2.3%)
Orbital Orthonormalization  ....       0.000 sec  (  0.0%)
DIIS solution               ....     105.564 sec  ( 23.4%)
SOSCF solution              ....      50.339 sec  ( 11.2%)
Finished LeanSCF after 452.6 sec

Maximum memory used throughout the entire LEANSCF-calculation: 7.9 MB


-------------------------------------------------------------------------------
                          DFT DISPERSION CORRECTION                            
                                                                               
                                DFTD4 V3.4.0                                   
-------------------------------------------------------------------------------
The B3LYP functional is recognized
Active option DFTDOPT                   ...         5   

-------------------------   ----------------
Dispersion correction           -0.001552628
-------------------------   ----------------


-------------------------   --------------------
FINAL SINGLE POINT ENERGY      -152.862466486827
-------------------------   --------------------



           ************************************************************
           *        Program running with 8 parallel MPI-processes     *
           *              working on a common directory               *
           ************************************************************

------------------------------------------------------------------------------
                              ORCA PROPERTY CALCULATIONS
------------------------------------------------------------------------------

GBWName                                 ... H_scan_0.96.gbw
Number of atoms                         ...      6
Number of basis functions               ...     86
Max core memory                         ...   9000 MB

Electric properties:
Dipole moment                           ... YES
Quadrupole moment                       ...  NO
Static polarizability (Dipole/Dipole)   ...  NO
Static polarizability (Dipole/Quad.)    ...  NO
Static polarizability (Quad./Quad.)     ...  NO
Static polarizability (Velocity)        ...  NO

Atomic electric properties:
Dipole moment                           ...  NO
Quadrupole moment                       ...  NO
Static polarizability                   ...  NO

Choice of electric origin               ... Center of mass
Position of electric origin             ...    -6.141122     3.700273    -0.092384

General magnetic properties:
Magnetizability                         ...  NO

EPR properties:
g-Tensor (aka g-matrix)                 ...  NO
Zero-Field splitting spin-orbit         ...  NO
Zero-field splitting spin-spin          ...  NO
Hyperfine couplings                     ...  NO (   0 nuclei)
Quadrupole couplings                    ...  NO (   0 nuclei)
Contact density                         ...  NO (   0 nuclei)

NMR properties:
Chemical shifts                         ...  NO (   0 nuclei)
Spin-rotation constants                 ...  NO (   0 nuclei)
Spin-spin couplings                     ...  NO (   0 nuclei,    0 pairs)

Choice of magnetic origin               ... GIAO
Position of magnetic origin             ...     0.000000     0.000000     0.000000

Properties with geometric perturbations:
SCF Hessian                             ...  NO
IR spectrum                             ...  NO
VCD spectrum                            ...  NO
X-ray spectroscopy properties:
SCF XES/XAS/RIXS spectra                ...  NO


-------------
DIPOLE MOMENT
-------------

Method             : SCF
Type of density    : Electron Density
Multiplicity       :   1
Irrep              :   0
Energy             :  -152.8609138586403162 Eh
Relativity type    : 
Basis              : AO
                                X                 Y                 Z
Electronic contribution:      0.023520120      -0.061359256       0.020552668
Nuclear contribution   :      0.238928812      -1.000904809      -0.049072590
                        -----------------------------------------
Total Dipole Moment    :      0.262448932      -1.062264065      -0.028519923
                        -----------------------------------------
Magnitude (a.u.)       :      1.094576526
Magnitude (Debye)      :      2.782192425



--------------------
Rotational spectrum 
--------------------
 
Rotational constants in cm-1:             7.158702             0.215526             0.215473 
Rotational constants in MHz :        214612.483812          6461.297402          6459.727072 

Dipole components along the rotational axes: 
x,y,z [a.u.] :    -1.094440    -0.006041    -0.016180 
x,y,z [Debye]:    -2.781846    -0.015355    -0.041127 

 

Dipole moment calculation done in   1.1 sec 

Maximum memory used throughout the entire PROP-calculation: 4.4 MB

--------------------------------
SUGGESTED CITATIONS FOR THIS RUN
--------------------------------

Below you find a list of papers that are relevant to this ORCA run
We neither can nor want to force you to cite these papers, but we appreciate if you do
You receive ORCA, which is the product of decades of hard work by many enthusiastic individuals, for free
The only thing we kindly ask in return is that you cite our papers,
We deeply appreciate it, if you show your appreciation for ORCA by not just citing the generic ORCA reference.

Please note that relegating all ORCA citations to the supporting information does *not* help us.
SI sections are not indexed - citations you put there will not count into any citation statistics
But we need these citations in order to attract the funding resources that allow us to do what we are doing

Therefore, if you are a happy ORCA user, please consider citing a few of the papers listed below in the main body of your paper

In addition to the list printed below, the program has created the file H_scan_0.96.bibtex that contains the list in bibtex format
You can import this file easily into all common literature databanks and citation aid programs


List of essential papers. We consider these as the minimum necessary citations

  1. Neese,F.
     Software update: the ORCA program system, version 5.0
     WIRES Comput. Molec. Sci., 2022 12(1)e1606
     doi.org/10.1002/wcms.1606

List of papers to cite with high priority. The work reported in these papers was absolutely
necessary for this run to complete.
Our perspective: the developers of density functionals and basis sets usually get cited in chemistry papers
Good! But without the algorithms to do something with them, the functionals or basis sets would not do anything.
Hence, in our opinion, the algorithm design and method developments papers are equally worthy of getting cited

  1. Neese,F.
     An improvement of the resolution of the identity approximation for the formation of the Coulomb matrix
     J. Comp. Chem., 2003 24(14)1740-1747
     doi.org/10.1002/jcc.10318
  2. Neese,F.; Wennmohs,F.; Hansen,A.; Becker,U.
     Efficient, approximate and parallel Hartree-Fock and hybrid DFT calculations. A 'chain-of-spheres' algorithm for the Hartree-Fock exchange
     Chem. Phys., 2009 356(1-3)98-109
     doi.org/10.1016/j.chemphys.2008.10.036
  3. Helmich-Paris,B.; de Souza,B.; Neese,F.; Izsák,R.
     An improved chain of spheres for exchange algorithm
     J. Chem. Phys., 2021 155 104109
     doi.org/doi: 10.1063/5.0058766.
  4. Neese,F.
     The SHARK Integral Generation and Digestion System
     J. Comp. Chem., 2022  1-16
     doi.org/10.1002/jcc.26942
  5. Caldeweyher,E.; Bannwarth,C.; Grimme,S.
     Extension of the D3 dispersion coefficient model
     J. Chem. Phys., 2017 147 034112-XXXX
     doi.org/10.1063/1.4993215
  6. Caldeweyher,E.; Ehlert,S.; Hansen,A.; Neugebauer,H.; Spicher,S.; Bannwarth,C.; Grimme,S.
     A generally applicable atomic-charge dependent London dispersion correction
     J. Chem. Phys., 2019 150 154122-XXXX
     doi.org/10.1063/1.5090222
  7. Caldeweyher,E.; Mewes,J.; Ehlert,S.; Grimme,S.
     Extension and evaluation of the D4 London-dispersion model for periodic systems
     Phys. Chem. Chem. Phys., 2020 22(16)8499-8512
     doi.org/10.1039/D0CP00502A

List of suggested additional citations. These are papers that are important in the 'surrounding' of 
of this run, or papers that preceded the highly important papers. If you like your results we are grateful for a citation.

  1. Izsak,R.; Neese,F.
     An overlap fitted chain of spheres exchange method
     J. Chem. Phys., 2011 135 144105
     doi.org/10.1063/1.3646921
  2. Izsak,R.; Hansen,A.; Neese,F.
     The resolution of identity and chain of spheres approximations for the LPNO-CCSD singles Fock term
     Molec. Phys., 2012 110 2413-2417
     doi.org/10.1080/00268976.2012.687466
  3. Neese,F.
     The ORCA program system
     WIRES Comput. Molec. Sci., 2012 2(1)73-78
     doi.org/10.1002/wcms.81
  4. Izsak,R.; Neese,F.; Klopper,W.
     Robust fitting techniques in the chain of spheres approximation to the Fock exchange: The role of the complementary space
     J. Chem. Phys., 2013 139 
     doi.org/10.1063/1.4819264
  5. Neese,F.
     Software update: the ORCA program system, version 4.0
     WIRES Comput. Molec. Sci., 2018 8(1)1-6
     doi.org/10.1002/wcms.1327
  6. Neese,F.; Wennmohs,F.; Becker,U.; Riplinger,C.
     The ORCA quantum chemistry program package
     J. Chem. Phys., 2020 152 Art. No. L224108
     doi.org/10.1063/5.0004608

List of optional additional citations

  1. Neese,F.
     Approximate second-order SCF convergence for spin unrestricted wavefunctions
     Chem. Phys. Lett., 2000 325(1-3)93-98
     doi.org/10.1016/s0009-2614(00)00662-x

Timings for individual modules:

Sum of individual times          ...      515.077 sec (=   8.585 min)
Startup calculation              ...       32.991 sec (=   0.550 min)   6.4 %
SCF iterations                   ...      476.931 sec (=   7.949 min)  92.6 %
Property calculations            ...        5.155 sec (=   0.086 min)   1.0 %
                             ****ORCA TERMINATED NORMALLY****
TOTAL RUN TIME: 0 days 0 hours 8 minutes 47 seconds 850 msec
