
                                 *****************
                                 * O   R   C   A *
                                 *****************

                                            #,                                       
                                            ###                                      
                                            ####                                     
                                            #####                                    
                                            ######                                   
                                           ########,                                 
                                     ,,################,,,,,                         
                               ,,#################################,,                 
                          ,,##########################################,,             
                       ,#########################################, ''#####,          
                    ,#############################################,,   '####,        
                  ,##################################################,,,,####,       
                ,###########''''           ''''###############################       
              ,#####''   ,,,,##########,,,,          '''####'''          '####       
            ,##' ,,,,###########################,,,                        '##       
           ' ,,###''''                  '''############,,,                           
         ,,##''                                '''############,,,,        ,,,,,,###''
      ,#''                                            '''#######################'''  
     '                                                          ''''####''''         
             ,#######,   #######,   ,#######,      ##                                
            ,#'     '#,  ##    ##  ,#'     '#,    #''#        ,####,   ,####,        
            ##       ##  ##   ,#'  ##            #'  '#       #'       #'  '#        
            ##       ##  #######   ##           ,######,      #####,   #    #        
            '#,     ,#'  ##    ##  '#,     ,#' ,#      #,     #,   #   #,  ,#        
             '#######'   ##     ##  '#######'  #'      '#     '####' # '####'        



                #########################################################
                #                        -***-                          #
                #          Department of theory and spectroscopy        #
                #                                                       #
                #                      Frank Neese                      #
                #                                                       #
                #     Directorship, Architecture, Infrastructure        #
                #                    SHARK, DRIVERS                     #
                #        Core code/Algorithms in most modules           #
                #                                                       #
                #        Max Planck Institute fuer Kohlenforschung      #
                #                Kaiser Wilhelm Platz 1                 #
                #                 D-45470 Muelheim/Ruhr                 #
                #                      Germany                          #
                #                                                       #
                #                  All rights reserved                  #
                #                        -***-                          #
                #########################################################


                         Program Version 6.0.0  -   RELEASE  -


 With contributions from (in alphabetic order):
   Daniel Aravena         : Magnetic Suceptibility
   Michael Atanasov       : Ab Initio Ligand Field Theory (pilot matlab implementation)
   Alexander A. Auer      : GIAO ZORA, VPT2 properties, NMR spectrum
   Ute Becker             : All parallelization in ORCA, NUMFREQ, NUMCALC
   Giovanni Bistoni       : ED, misc. LED, open-shell LED, HFLD
   Martin Brehm           : Molecular dynamics
   Dmytro Bykov           : pre 5.0 version of the SCF Hessian
   Marcos Casanova-Páez   : Triplet and SCS-CIS(D). UHF-(DLPNO)-IP/EA/STEOM-CCSD. UHF-CVS-IP/STEOM-CCSD
   Vijay G. Chilkuri      : MRCI spin determinant printing, contributions to CSF-ICE
   Pauline Colinet        : FMM embedding
   Dipayan Datta          : RHF DLPNO-CCSD density
   Achintya Kumar Dutta   : EOM-CC, STEOM-CC
   Nicolas Foglia         : Exact transition moments, OPA infrastructure, MCD improvements
   Dmitry Ganyushin       : Spin-Orbit,Spin-Spin,Magnetic field MRCI
   Miquel Garcia          : C-PCM and meta-GGA Hessian, CCSD/C-PCM, Gaussian charge scheme
   Tiago L. C. Gouveia    : GS-ROHF, GS-ROCIS
   Yang Guo               : DLPNO-NEVPT2, F12-NEVPT2, CIM, IAO-localization
   Andreas Hansen         : Spin unrestricted coupled pair/coupled cluster methods
   Ingolf Harden          : AUTO-CI MPn and infrastructure 
   Benjamin Helmich-Paris : MC-RPA, TRAH-(SCF,CASSCF), AVAS, COSX integrals, SCF dyn. polar.
   Lee Huntington         : MR-EOM, pCC
   Robert Izsak           : Overlap fitted RIJCOSX, COSX-SCS-MP3, EOM
   Riya Kayal             : Wick's Theorem for AUTO-CI, AUTO-CI UHF-CCSDT
   Emily Kempfer          : AUTO-CI, RHF CISDT and CCSDT
   Christian Kollmar      : KDIIS, OOCD, Brueckner-CCSD(T), CCSD density, CASPT2, CASPT2-K, improved NEVPT2
   Axel Koslowski         : Symmetry handling
   Simone Kossmann        : Meta GGA functionals, TD-DFT gradient, OOMP2, (MP2 Hessian; deprecated post 5.0)
   Lucas Lang             : DCDCAS
   Marvin Lechner         : AUTO-CI (C++ implementation), FIC-MRCC
   Spencer Leger          : CASSCF response
   Dagmar Lenk            : GEPOL surface, SMD, ORCA-2-JSON
   Dimitrios Liakos       : Extrapolation schemes; Compound Job, initial MDCI parallelization
   Dimitrios Manganas     : Further ROCIS development; embedding schemes. LFT, Crystal Embedding
   Dimitrios Pantazis     : SARC Basis sets
   Anastasios Papadopoulos: AUTO-CI, single reference methods and gradients
   Taras Petrenko         : pre 6.0 DFT Hessian and TD-DFT gradient, (ASA, deprecated), ECA, 1-Electron XAS/XES, NRVS
   Peter Pinski           : DLPNO-MP2, DLPNO-MP2 Gradient
   Christoph Reimann      : Effective Core Potentials
   Marius Retegan         : Local ZFS, SOC
   Christoph Riplinger    : Optimizer, TS searches, QM/MM, DLPNO-CCSD(T), (RO)-DLPNO pert. Triples
   Michael Roemelt        : Original ROCIS implementation
   Masaaki Saitow         : Open-shell DLPNO-CCSD energy and density
   Barbara Sandhoefer     : DKH picture change effects
   Kantharuban Sivalingam : CASSCF convergence/infrastructure, NEVPT2 and variants, FIC-MRCI
   Bernardo de Souza      : ESD, SOC TD-DFT
   Georgi Stoychev        : AutoAux, RI-MP2 NMR, DLPNO-MP2 response, X2C
   Van Anh Tran           : RI-MP2 g-tensors
   Willem Van den Heuvel  : Paramagnetic NMR
   Zikuan Wang            : NOTCH, Electric field optimization 
   Frank Wennmohs         : Technical directorship and infrastructure
   Hang Xu                : AUTO-CI-Response properties 


 We gratefully acknowledge several colleagues who have allowed us to
 interface, adapt or use parts of their codes:
   Stefan Grimme, W. Hujo, H. Kruse, P. Pracht,  : VdW corrections, initial TS optimization,
                  C. Bannwarth, S. Ehlert,         DFT functionals, gCP, sTDA/sTD-DF
                  L. Wittmann, M. Mueller
   Ed Valeev, F. Pavosevic, A. Kumar             : LibInt (2-el integral package), F12 methods
   Garnet Chan, S. Sharma, J. Yang, R. Olivares  : DMRG
   Ulf Ekstrom                                   : XCFun DFT Library
   Mihaly Kallay                                 : mrcc  (arbitrary order and MRCC methods)
   Frank Weinhold                                : gennbo (NPA and NBO analysis)
   Simon Mueller                                 : openCOSMO-RS
   Christopher J. Cramer and Donald G. Truhlar   : smd solvation model
   Lars Goerigk                                  : TD-DFT with DH, B97 family of functionals
   V. Asgeirsson, H. Jonsson                     : NEB implementation
   FAccTs GmbH                                   : IRC, NEB, NEB-TS, DLPNO-Multilevel, CI-OPT
                                                   MM, QMMM, 2- and 3-layer-ONIOM, Crystal-QMMM,
                                                   LR-CPCM, SF, NACMEs, symmetry and pop. for TD-DFT,
                                                   nearIR, NL-DFT gradient (VV10), updates on ESD,
                                                   ML-optimized integration grids, MBIS, APM,
                                                   GOAT, DOCKER, SOLVATOR, interface openCOSMO-RS
   S Lehtola, MJT Oliveira, MAL Marques          : LibXC Library
   Liviu Ungur et al                             : ANISO software


 Your calculation uses the libint2 library for the computation of 2-el integrals
 For citations please refer to: http://libint.valeyev.net

 Your ORCA version has been built with support for libXC version: 6.2.2
 For citations please refer to: https://libxc.gitlab.io

 This ORCA versions uses:
   CBLAS   interface :  Fast vector & matrix operations
   LAPACKE interface :  Fast linear algebra routines
   SCALAPACK package :  Parallel linear algebra routines
   Shared memory     :  Shared parallel matrices
   BLAS/LAPACK       :  OpenBLAS 0.3.27  USE64BITINT DYNAMIC_ARCH NO_AFFINITY SkylakeX SINGLE_THREADED
        Core in use  :  SkylakeX
   Copyright (c) 2011-2014, The OpenBLAS Project


Your calculation utilizes the atom-pairwise dispersion correction
with the Becke-Johnson damping scheme (D3BJ)


Warning: RI is on but no J-basis has been assigned. Assigning Def2/J (nothing to worry about!)
================================================================================

----- Orbital basis set information -----
Your calculation utilizes the basis: def2-TZVP
   F. Weigend and R. Ahlrichs, Phys. Chem. Chem. Phys. 7, 3297 (2005).

----- AuxJ basis set information -----
Your calculation utilizes the auxiliary basis: def2/J
   F. Weigend, Phys. Chem. Chem. Phys. 8, 1057 (2006).

================================================================================
                                        WARNINGS
                       Please study these warnings very carefully!
================================================================================


================================================================================
                                       INPUT FILE
================================================================================
NAME = butane_deg+179.98°.inp
|  1> ! WB97X-D3BJ def2-TZVP VeryTightSCF
|  2> 
|  3> %pal
|  4>    nprocs 8
|  5> end
|  6> * xyz 0 1
|  7> C       -1.9441597463      1.3745593897     -0.1618041094                 
|  8> C       -0.5826006671      1.4296641421      0.5124106972                 
|  9> C        0.5498982653      1.4259859272     -0.5124007539                 
| 10> C        1.9114435655      1.4816387667      0.1617968598                 
| 11> H       -2.0925248164      2.2385369748     -0.8174571002                 
| 12> H       -2.7397405362      1.3779813683      0.5898345288                 
| 13> H       -2.0480707623      0.4652231865     -0.7623499058                 
| 14> H       -0.5233478777      2.3334937530      1.1299528362                 
| 15> H       -0.4792220956      0.5701723873      1.1849952910                 
| 16> H        0.4463224394      2.2852457215     -1.1852494156                 
| 17> H        0.4908537089      0.5219515464     -1.1296651256                 
| 18> H        2.0152200321      2.3913439698      0.7618095046                 
| 19> H        2.0599236525      0.6180691406      0.8179586296                 
| 20> H        2.7070322426      1.4779030656     -0.5898319366                                  
| 21> *
| 22> 
| 23>                          ****END OF INPUT****
================================================================================

                       ****************************
                       * Single Point Calculation *
                       ****************************

---------------------------------
CARTESIAN COORDINATES (ANGSTROEM)
---------------------------------
  C     -1.944160    1.374559   -0.161804
  C     -0.582601    1.429664    0.512411
  C      0.549898    1.425986   -0.512401
  C      1.911444    1.481639    0.161797
  H     -2.092525    2.238537   -0.817457
  H     -2.739741    1.377981    0.589835
  H     -2.048071    0.465223   -0.762350
  H     -0.523348    2.333494    1.129953
  H     -0.479222    0.570172    1.184995
  H      0.446322    2.285246   -1.185249
  H      0.490854    0.521952   -1.129665
  H      2.015220    2.391344    0.761810
  H      2.059924    0.618069    0.817959
  H      2.707032    1.477903   -0.589832

----------------------------
CARTESIAN COORDINATES (A.U.)
----------------------------
  NO LB      ZA    FRAG     MASS         X           Y           Z
   0 C     6.0000    0    12.011   -3.673929    2.597541   -0.305765
   1 C     6.0000    0    12.011   -1.100956    2.701674    0.968316
   2 C     6.0000    0    12.011    1.039157    2.694723   -0.968297
   3 C     6.0000    0    12.011    3.612105    2.799891    0.305752
   4 H     1.0000    0     1.008   -3.954299    4.230222   -1.544770
   5 H     1.0000    0     1.008   -5.177359    2.604007    1.114626
   6 H     1.0000    0     1.008   -3.870293    0.879144   -1.440633
   7 H     1.0000    0     1.008   -0.988984    4.409664    2.135301
   8 H     1.0000    0     1.008   -0.905599    1.077470    2.239317
   9 H     1.0000    0     1.008    0.843427    4.318489   -2.239797
  10 H     1.0000    0     1.008    0.927579    0.986345   -2.134758
  11 H     1.0000    0     1.008    3.808214    4.518985    1.439611
  12 H     1.0000    0     1.008    3.892692    1.167981    1.545718
  13 H     1.0000    0     1.008    5.115550    2.792832   -1.114621

--------------------------------
INTERNAL COORDINATES (ANGSTROEM)
--------------------------------
 C      0   0   0     0.000000000000     0.00000000     0.00000000
 C      1   0   0     1.520343798398     0.00000000     0.00000000
 C      2   1   0     1.527352569467   111.49378384     0.00000000
 C      3   2   1     1.520343798409   111.49378381   179.97778304
 H      1   2   3     1.094691877163   111.00054738   299.73070845
 H      1   2   3     1.094495840847   110.26224202   179.99151909
 H      1   2   3     1.094689491714   111.00196376    60.25046437
 H      2   1   3     1.096255970124   109.15341617   121.56465138
 H      2   1   3     1.096258747482   109.15419949   238.43717624
 H      3   2   1     1.096257573457   109.86947093    58.82976790
 H      3   2   1     1.096257144049   109.86780435   301.12587944
 H      4   3   2     1.094690954328   111.00062638   299.73076569
 H      4   3   2     1.094690414457   111.00188477    60.25052164
 H      4   3   2     1.094495841093   110.26224199   179.99146936

---------------------------
INTERNAL COORDINATES (A.U.)
---------------------------
 C      0   0   0     0.000000000000     0.00000000     0.00000000
 C      1   0   0     2.873033408378     0.00000000     0.00000000
 C      2   1   0     2.886278066234   111.49378384     0.00000000
 C      3   2   1     2.873033408398   111.49378381   179.97778304
 H      1   2   3     2.068667848866   111.00054738   299.73070845
 H      1   2   3     2.068297393916   110.26224202   179.99151909
 H      1   2   3     2.068663341022   111.00196376    60.25046437
 H      2   1   3     2.071623556210   109.15341617   121.56465138
 H      2   1   3     2.071628804657   109.15419949   238.43717624
 H      3   2   1     2.071626586072   109.86947093    58.82976790
 H      3   2   1     2.071625774608   109.86780435   301.12587944
 H      4   3   2     2.068666104960   111.00062638   299.73076569
 H      4   3   2     2.068665084753   111.00188477    60.25052164
 H      4   3   2     2.068297394382   110.26224199   179.99146936

---------------------
BASIS SET INFORMATION
---------------------
There are 2 groups of distinct atoms

 Group   1 Type C   : 11s6p2d1f contracted to 5s3p2d1f pattern {62111/411/11/1}
 Group   2 Type H   : 5s1p contracted to 3s1p pattern {311/1}

Atom   0C    basis set group =>   1
Atom   1C    basis set group =>   1
Atom   2C    basis set group =>   1
Atom   3C    basis set group =>   1
Atom   4H    basis set group =>   2
Atom   5H    basis set group =>   2
Atom   6H    basis set group =>   2
Atom   7H    basis set group =>   2
Atom   8H    basis set group =>   2
Atom   9H    basis set group =>   2
Atom  10H    basis set group =>   2
Atom  11H    basis set group =>   2
Atom  12H    basis set group =>   2
Atom  13H    basis set group =>   2
---------------------------------
AUXILIARY/J BASIS SET INFORMATION
---------------------------------
There are 2 groups of distinct atoms

 Group   1 Type C   : 12s5p4d2f1g contracted to 6s4p3d1f1g pattern {711111/2111/211/2/1}
 Group   2 Type H   : 5s2p1d contracted to 3s1p1d pattern {311/2/1}

Atom   0C    basis set group =>   1
Atom   1C    basis set group =>   1
Atom   2C    basis set group =>   1
Atom   3C    basis set group =>   1
Atom   4H    basis set group =>   2
Atom   5H    basis set group =>   2
Atom   6H    basis set group =>   2
Atom   7H    basis set group =>   2
Atom   8H    basis set group =>   2
Atom   9H    basis set group =>   2
Atom  10H    basis set group =>   2
Atom  11H    basis set group =>   2
Atom  12H    basis set group =>   2
Atom  13H    basis set group =>   2


           ************************************************************
           *        Program running with 8 parallel MPI-processes     *
           *              working on a common directory               *
           ************************************************************
------------------------------------------------------------------------------
                             ORCA STARTUP CALCULATIONS
                           -- RI-GTO INTEGRALS CHOSEN --
------------------------------------------------------------------------------
------------------------------------------------------------------------------
                   ___                                                        
                  /   \      - P O W E R E D   B Y -                         
                 /     \                                                     
                 |  |  |   _    _      __       _____    __    __             
                 |  |  |  | |  | |    /  \     |  _  \  |  |  /  |          
                  \  \/   | |  | |   /    \    | | | |  |  | /  /          
                 / \  \   | |__| |  /  /\  \   | |_| |  |  |/  /          
                |  |  |   |  __  | /  /__\  \  |    /   |      \           
                |  |  |   | |  | | |   __   |  |    \   |  |\   \          
                \     /   | |  | | |  |  |  |  | |\  \  |  | \   \       
                 \___/    |_|  |_| |__|  |__|  |_| \__\ |__|  \__/        
                                                                              
                      - O R C A' S   B I G   F R I E N D -                    
                                      &                                       
                       - I N T E G R A L  F E E D E R -                       
                                                                              
 v1 FN, 2020, v2 2021, v3 2022-2024                                           
------------------------------------------------------------------------------


----------------------
SHARK INTEGRAL PACKAGE
----------------------

Number of atoms                             ...     14
Number of basis functions                   ...    184
Number of shells                            ...     84
Maximum angular momentum                    ...      3
Integral batch strategy                     ... SHARK/LIBINT Hybrid
RI-J (if used) integral strategy            ... SPLIT-RIJ (Revised 2003 algorithm where possible)
Printlevel                                  ...      1
Contraction scheme used                     ... SEGMENTED contraction
Prescreening option                         ... SCHWARTZ
   Thresh                                   ... 1.000e-12
   Tcut                                     ... 1.000e-14
   Tpresel                                  ... 1.000e-14 
Coulomb Range Separation                    ... NOT USED
Exchange Range Separation                   ... Long Range
   Mu parameter                             ... 3.000e-01
   Scaling (regular/separated)              ... 1.670e-01 8.330e-01
Multipole approximations                    ... NOT USED
Finite Nucleus Model                        ... NOT USED
CABS basis                                  ... NOT available
Auxiliary Coulomb fitting basis             ... AVAILABLE
   # of basis functions in Aux-J            ...    306
   # of shells in Aux-J                     ...    110
   Maximum angular momentum in Aux-J        ...      4
Auxiliary J/K fitting basis                 ... NOT available
Auxiliary Correlation fitting basis         ... NOT available
Auxiliary 'external' fitting basis          ... NOT available

Checking pre-screening integrals            ... done (  0.0 sec) Dimension = 84
Check shell pair data                       ... done (  0.0 sec)
Shell pair information
Shell pair cut-off parameter TPreSel        ...   1.0e-14
Total number of shell pairs                 ...      3570
Shell pairs after pre-screening             ...      3493
Total number of primitive shell pairs       ...      9988
Primitive shell pairs kept                  ...      8108
          la=0 lb=0:   1237 shell pairs
          la=1 lb=0:   1070 shell pairs
          la=1 lb=1:    252 shell pairs
          la=2 lb=0:    394 shell pairs
          la=2 lb=1:    176 shell pairs
          la=2 lb=2:     36 shell pairs
          la=3 lb=0:    198 shell pairs
          la=3 lb=1:     88 shell pairs
          la=3 lb=2:     32 shell pairs
          la=3 lb=3:     10 shell pairs

Calculating one electron integrals          ... done (  0.0 sec)
Calculating RI/J V-Matrix + Cholesky decomp.... done (  0.0 sec)
Calculating Nuclear repulsion               ... done (  0.0 sec) ENN=    131.163555881134 Eh

Diagonalization of the overlap matrix:
Smallest eigenvalue                        ... 2.333e-04
Time for diagonalization                   ...    0.004 sec
Threshold for overlap eigenvalues          ... 1.000e-07
Number of eigenvalues below threshold      ... 0
Time for construction of square roots      ...    0.008 sec
Total time needed                          ...    0.026 sec

-------------------
DFT GRID GENERATION
-------------------

General Integration Accuracy     IntAcc      ... 4.388
Radial Grid Type                 RadialGrid  ... OptM3 with GC (2021)
Angular Grid (max. ang.)         AngularGrid ... 4 (Lebedev-302)
Angular grid pruning method      GridPruning ... 4 (adaptive)
Weight generation scheme         WeightScheme... mBecke (2022)
Basis function cutoff            BFCut       ... 1.0000e-12
Integration weight cutoff        WCut        ... 1.0000e-14
Partially contracted basis set               ... off
Rotationally invariant grid construction     ... off
Angular grids for H and He will be reduced by one unit

Total number of grid points                  ...    56356
Total number of batches                      ...      888
Average number of points per batch           ...       63
Average number of grid points per atom       ...     4025

--------------------
COSX GRID GENERATION
--------------------

GRIDX 1
-------
General Integration Accuracy     IntAcc      ... 3.816
Radial Grid Type                 RadialGrid  ... OptM3 with GC (2021)
Angular Grid (max. ang.)         AngularGrid ... 1 (Lebedev-50)
Angular grid pruning method      GridPruning ... 4 (adaptive)
Weight generation scheme         WeightScheme... mBecke (2022)
Basis function cutoff            BFCut       ... 1.0000e-12
Integration weight cutoff        WCut        ... 1.0000e-14
Partially contracted basis set               ... on
Rotationally invariant grid construction     ... off
Angular grids for H and He will be reduced by one unit

Total number of grid points                  ...     7260
Total number of batches                      ...       66
Average number of points per batch           ...      110
Average number of grid points per atom       ...      519
UseSFitting                                  ... on

GRIDX 2
-------
General Integration Accuracy     IntAcc      ... 4.020
Radial Grid Type                 RadialGrid  ... OptM3 with GC (2021)
Angular Grid (max. ang.)         AngularGrid ... 2 (Lebedev-110)
Angular grid pruning method      GridPruning ... 4 (adaptive)
Weight generation scheme         WeightScheme... mBecke (2022)
Basis function cutoff            BFCut       ... 1.0000e-12
Integration weight cutoff        WCut        ... 1.0000e-14
Partially contracted basis set               ... on
Rotationally invariant grid construction     ... off
Angular grids for H and He will be reduced by one unit

Total number of grid points                  ...    14938
Total number of batches                      ...      124
Average number of points per batch           ...      120
Average number of grid points per atom       ...     1067
UseSFitting                                  ... on

GRIDX 3
-------
General Integration Accuracy     IntAcc      ... 4.338
Radial Grid Type                 RadialGrid  ... OptM3 with GC (2021)
Angular Grid (max. ang.)         AngularGrid ... 3 (Lebedev-194)
Angular grid pruning method      GridPruning ... 4 (adaptive)
Weight generation scheme         WeightScheme... mBecke (2022)
Basis function cutoff            BFCut       ... 1.0000e-12
Integration weight cutoff        WCut        ... 1.0000e-14
Partially contracted basis set               ... on
Rotationally invariant grid construction     ... off
Angular grids for H and He will be reduced by one unit

Total number of grid points                  ...    32606
Total number of batches                      ...      260
Average number of points per batch           ...      125
Average number of grid points per atom       ...     2329
UseSFitting                                  ... on
Initializing property integral containers    ... done (  0.1 sec)

SHARK setup successfully completed in   4.3 seconds

Maximum memory used throughout the entire STARTUP-calculation: 17.5 MB


           ************************************************************
           *        Program running with 8 parallel MPI-processes     *
           *              working on a common directory               *
           ************************************************************
-------------------------------------------------------------------------------
                                 ORCA GUESS
                   Start orbitals & Density for SCF / CASSCF
-------------------------------------------------------------------------------

------------
SCF SETTINGS
------------
Hamiltonian:
 Density Functional     Method          .... DFT(GTOs)
 Exchange Functional    Exchange        .... WB97X-V
 Correlation Functional Correlation     .... WB97X-V
 Gradients option       PostSCFGGA      .... off
 Hybrid DFT is turned on
   Fraction HF Exchange ScalHFX         ....  0.167000
   Scaling of DF-GGA-X  ScalDFX         ....  0.000000
   Scaling of DF-GGA-C  ScalDFC         ....  1.000000
   Scaling of DF-LDA-C  ScalLDAC        ....  1.000000
   Perturbative correction              ....  0.000000
 Long-range corrected/Screened/Range-Separated Hybrid DFT is turned on
   Amount of maximum screened exact exchange              ....  0.833000
   Range separation parameter mu (erf(mu*r12)/r12)        ....  0.300000
 RI-approximation to the Coulomb term is turned on
   Number of AuxJ basis functions       .... 306
   RIJ-COSX (HFX calculated with COS-X)).... on


General Settings:
 Integral files         IntName         .... butane_deg+179.98°
 Hartree-Fock type      HFTyp           .... RHF
 Total Charge           Charge          ....    0
 Multiplicity           Mult            ....    1
 Number of Electrons    NEL             ....   34
 Basis Dimension        Dim             ....  184
 Nuclear Repulsion      ENuc            ....    131.1635558811 Eh

Convergence Acceleration:
 AO-DIIS                CNVDIIS         .... on
   Start iteration      DIISMaxIt       ....    12
   Startup error        DIISStart       ....  0.200000
   # of expansion vecs  DIISMaxEq       ....     5
   Bias factor          DIISBfac        ....   1.050
   Max. coefficient     DIISMaxC        ....  10.000
 MO-DIIS                CNVKDIIS        .... off
 Trust-Rad. Augm. Hess. CNVTRAH         .... auto
   Auto Start mean grad. ratio tolernc. ....  1.125000
   Auto Start start iteration           ....    50
   Auto Start num. interpolation iter.  ....    10
   Max. Number of Micro iterations      ....    24
   Max. Number of Macro iterations      .... Maxiter - #DIIS iter
   Number of Davidson start vectors     ....     2
   Converg. threshold    (grad. norm)   ....   2.000e-06
   Grad. Scal. Fac. for Micro threshold ....   0.100
   Minimum threshold for Micro iter.    ....   1.000e-02
   NR start threshold (gradient norm)   ....   1.000e-04
   Initial trust radius                 ....   0.400
   Minimum AH scaling param. (alpha)    ....   1.000
   Maximum AH scaling param. (alpha)    .... 1000.000
   Quad. conv. algorithm                .... NR
   White noise on init. David. guess    .... on
   Maximum white noise                  ....   0.010
   Pseudo random numbers                .... off
   Inactive MOs                         .... canonical
   Orbital update algorithm             .... Taylor
   Preconditioner                       .... Diag
   Full preconditioner red. dimension   ....   250
 SOSCF                  CNVSOSCF        .... on
   Start iteration      SOSCFMaxIt      ....   150
   Startup grad/error   SOSCFStart      ....  0.003300
   Hessian update       SOSCFHessUp     .... L-BFGS
 Level Shifting         CNVShift        .... on
   Level shift para.    LevelShift      ....    0.2500
   Turn off err/grad.   ShiftErr        ....    0.0010
 Zerner damping         CNVZerner       .... off
 Static damping         CNVDamp         .... on
   Fraction old density DampFac         ....    0.7000
   Max. Damping (<1)    DampMax         ....    0.9800
   Min. Damping (>=0)   DampMin         ....    0.0000
   Turn off err/grad.   DampErr         ....    0.1000

SCF Procedure:
 Maximum # iterations   MaxIter         ....   125
 SCF integral mode      SCFMode         .... Direct
   Integral package                     .... SHARK and LIBINT hybrid scheme
 Reset frequency        DirectResetFreq ....    20
 Integral Threshold     Thresh          ....  1.000e-12 Eh
 Primitive CutOff       TCut            ....  1.000e-14 Eh

Convergence Tolerance:
 Convergence Check Mode ConvCheckMode   .... Total+1el-Energy
 Convergence forced     ConvForced      .... 0
 Energy Change          TolE            ....  1.000e-09 Eh
 1-El. energy change                    ....  1.000e-06 Eh
 Orbital Gradient       TolG            ....  2.000e-06
 Orbital Rotation angle TolX            ....  2.000e-06
 DIIS Error             TolErr          ....  1.000e-08

------------------------------
INITIAL GUESS: MODEL POTENTIAL
------------------------------
Loading Hartree-Fock densities                     ... done
Calculating cut-offs                               ... done
Initializing the effective Hamiltonian             ... done
Setting up the integral package (SHARK)            ... done
Starting the Coulomb interaction                   ... done (   0.0 sec)
Making the grid                                    ... done (   0.9 sec)
Mapping shells                                     ... done
Starting the XC term evaluation                    ... done (   0.0 sec)
  promolecular density results
     # of electrons  =     33.992448921
     EX              =    -15.225135430
     EC              =     -1.306795762
     EX+EC           =    -16.531931192
Transforming the Hamiltonian                       ... done (   0.0 sec)
Diagonalizing the Hamiltonian                      ... done (   0.0 sec)
Back transforming the eigenvectors                 ... done (   0.0 sec)
Now organizing SCF variables                       ... done
                      ------------------
                      INITIAL GUESS DONE (   1.1 sec)
                      ------------------
             **** ENERGY FILE WAS UPDATED (butane_deg+179.98°.en.tmp) ****
Finished Guess after   2.3 sec
Maximum memory used throughout the entire GUESS-calculation: 11.3 MB


           ************************************************************
           *        Program running with 8 parallel MPI-processes     *
           *              working on a common directory               *
           ************************************************************

-------------------------------------------------------------------------------------------
                                      ORCA LEAN-SCF
                              memory conserving SCF solver
-------------------------------------------------------------------------------------------

----------------------------------------D-I-I-S--------------------------------------------
Iteration    Energy (Eh)           Delta-E    RMSDP     MaxDP     DIISErr   Damp  Time(sec)
-------------------------------------------------------------------------------------------
               ***  Starting incremental Fock matrix formation  ***
    1    -158.5551894744415904     0.00e+00  6.47e-04  1.39e-02  2.61e-01  0.700   4.5
    2    -158.5691460939968351    -1.40e-02  5.22e-04  1.04e-02  1.82e-01  0.700   4.0
                               ***Turning on AO-DIIS***
    3    -158.5773844704655744    -8.24e-03  3.41e-04  7.02e-03  1.26e-01  0.700   3.8
    4    -158.5826234732422790    -5.24e-03  2.56e-04  4.95e-03  8.75e-02  0.700   3.8
    5    -158.5862243908841265    -3.60e-03  6.51e-04  1.18e-02  6.09e-02  0.000   3.8
                              *** Initializing SOSCF ***
---------------------------------------S-O-S-C-F--------------------------------------
Iteration    Energy (Eh)           Delta-E    RMSDP     MaxDP     MaxGrad    Time(sec)
--------------------------------------------------------------------------------------
    6    -158.5946958818305461    -8.47e-03  6.37e-05  8.87e-04  1.48e-03     4.2
               *** Restarting incremental Fock matrix formation ***
    7    -158.5947203473144782    -2.45e-05  3.60e-05  5.43e-04  2.68e-04     4.3
    8    -158.5947228695474678    -2.52e-06  1.87e-05  3.00e-04  9.44e-05     4.3
    9    -158.5947231252381471    -2.56e-07  3.86e-06  6.55e-05  4.66e-05     4.3
   10    -158.5947231816782619    -5.64e-08  5.31e-07  9.62e-06  4.08e-06     4.3
   11    -158.5947231815968053     8.15e-11  1.63e-07  2.27e-06  1.85e-06     4.2
                 **** Energy Check signals convergence ****

               *****************************************************
               *                     SUCCESS                       *
               *           SCF CONVERGED AFTER  11 CYCLES          *
               *****************************************************

Recomputing exchange energy using gridx3       ... done (    1.867 sec)
Old exchange energy                            :     -8.455887898 Eh
New exchange energy                            :     -8.455896969 Eh
Exchange energy change after final integration :     -0.000009071 Eh
Total energy after final integration           :   -158.594732253 Eh
             **** ENERGY FILE WAS UPDATED (butane_deg+179.98°.en.tmp) ****

----------------
TOTAL SCF ENERGY
----------------

Total Energy       :       -158.59473225271844 Eh           -4315.58206 eV

Components:
Nuclear Repulsion  :        131.16355588113413 Eh            3569.14181 eV
Electronic Energy  :       -289.75827906273094 Eh           -7884.72362 eV
One Electron Energy:       -470.82393767608062 Eh          -12811.77068 eV
Two Electron Energy:        181.06565861334965 Eh            4927.04706 eV

Virial components:
Potential Energy   :       -316.33106633652488 Eh           -8607.80593 eV
Kinetic Energy     :        157.73633408380644 Eh            4292.22386 eV
Virial Ratio       :          2.00544198122708

DFT components:
N(Alpha)           :       16.999950996018 electrons
N(Beta)            :       16.999950996018 electrons
N(Total)           :       33.999901992036 electrons
E(X)               :      -15.802659212871 Eh       
E(C)               :       -1.324822495182 Eh       
E(XC)              :      -17.127481708054 Eh       

---------------
SCF CONVERGENCE
---------------

  Last Energy change         ...   -8.1457e-11  Tolerance :   1.0000e-09
  Last MAX-Density change    ...    2.2681e-06  Tolerance :   1.0000e-08
  Last RMS-Density change    ...    1.6275e-07  Tolerance :   1.0000e-09
  Last DIIS Error            ...    1.4834e-03  Tolerance :   1.0000e-08
  Last Orbital Gradient      ...    1.8546e-06  Tolerance :   2.0000e-06
  Last Orbital Rotation      ...    2.4762e-06  Tolerance :   2.0000e-06


----------------
ORBITAL ENERGIES
----------------

  NO   OCC          E(Eh)            E(eV) 
   0   2.0000     -10.260806      -279.2107 
   1   2.0000     -10.260625      -279.2058 
   2   2.0000     -10.253897      -279.0227 
   3   2.0000     -10.253897      -279.0227 
   4   2.0000      -0.932108       -25.3639 
   5   2.0000      -0.856912       -23.3178 
   6   2.0000      -0.753719       -20.5097 
   7   2.0000      -0.700005       -19.0481 
   8   2.0000      -0.587865       -15.9966 
   9   2.0000      -0.540076       -14.6962 
  10   2.0000      -0.528888       -14.3918 
  11   2.0000      -0.523040       -14.2327 
  12   2.0000      -0.473986       -12.8978 
  13   2.0000      -0.454771       -12.3749 
  14   2.0000      -0.437098       -11.8940 
  15   2.0000      -0.427271       -11.6266 
  16   2.0000      -0.420027       -11.4295 
  17   0.0000       0.112769         3.0686 
  18   0.0000       0.134088         3.6487 
  19   0.0000       0.156129         4.2485 
  20   0.0000       0.158113         4.3025 
  21   0.0000       0.186959         5.0874 
  22   0.0000       0.192646         5.2422 
  23   0.0000       0.202950         5.5226 
  24   0.0000       0.213595         5.8122 
  25   0.0000       0.224345         6.1047 
  26   0.0000       0.225631         6.1397 
  27   0.0000       0.246206         6.6996 
*Only the first 10 virtual orbitals were printed.

                    ********************************
                    * MULLIKEN POPULATION ANALYSIS *
                    ********************************

-----------------------
MULLIKEN ATOMIC CHARGES
-----------------------
   0 C :   -0.326070
   1 C :   -0.156216
   2 C :   -0.156235
   3 C :   -0.326042
   4 H :    0.101876
   5 H :    0.109696
   6 H :    0.101868
   7 H :    0.084419
   8 H :    0.084429
   9 H :    0.084420
  10 H :    0.084426
  11 H :    0.101869
  12 H :    0.101870
  13 H :    0.109691
Sum of atomic charges:   -0.0000000

--------------------------------
MULLIKEN REDUCED ORBITAL CHARGES
--------------------------------
  0 C s       :     3.223789  s :     3.223789
      pz      :     1.027863  p :     3.039000
      px      :     0.965821
      py      :     1.045316
      dz2     :     0.004378  d :     0.059854
      dxz     :     0.016219
      dyz     :     0.017321
      dx2y2   :     0.012477
      dxy     :     0.009458
      f0      :     0.000010  f :     0.003427
      f+1     :     0.000763
      f-1     :    -0.000019
      f+2     :     0.001582
      f-2     :     0.000367
      f+3     :     0.000225
      f-3     :     0.000500

  1 C s       :     3.170506  s :     3.170506
      pz      :     0.957740  p :     2.882969
      px      :     0.914955
      py      :     1.010274
      dz2     :     0.012297  d :     0.097154
      dxz     :     0.020961
      dyz     :     0.029196
      dx2y2   :     0.020967
      dxy     :     0.013734
      f0      :     0.000322  f :     0.005588
      f+1     :     0.001394
      f-1     :     0.000054
      f+2     :     0.001753
      f-2     :     0.000964
      f+3     :     0.000382
      f-3     :     0.000719

  2 C s       :     3.170530  s :     3.170530
      pz      :     0.957728  p :     2.882956
      px      :     0.914954
      py      :     1.010273
      dz2     :     0.012298  d :     0.097161
      dxz     :     0.020965
      dyz     :     0.029193
      dx2y2   :     0.020972
      dxy     :     0.013733
      f0      :     0.000322  f :     0.005588
      f+1     :     0.001395
      f-1     :     0.000054
      f+2     :     0.001753
      f-2     :     0.000964
      f+3     :     0.000382
      f-3     :     0.000719

  3 C s       :     3.223753  s :     3.223753
      pz      :     1.027862  p :     3.039003
      px      :     0.965827
      py      :     1.045314
      dz2     :     0.004380  d :     0.059859
      dxz     :     0.016219
      dyz     :     0.017319
      dx2y2   :     0.012482
      dxy     :     0.009458
      f0      :     0.000010  f :     0.003427
      f+1     :     0.000763
      f-1     :    -0.000018
      f+2     :     0.001581
      f-2     :     0.000367
      f+3     :     0.000225
      f-3     :     0.000500

  4 H s       :     0.877374  s :     0.877374
      pz      :     0.007179  p :     0.020751
      px      :     0.004428
      py      :     0.009143

  5 H s       :     0.869381  s :     0.869381
      pz      :     0.007785  p :     0.020923
      px      :     0.008960
      py      :     0.004178

  6 H s       :     0.877381  s :     0.877381
      pz      :     0.006699  p :     0.020751
      px      :     0.004327
      py      :     0.009725

  7 H s       :     0.894723  s :     0.894723
      pz      :     0.007135  p :     0.020858
      px      :     0.004107
      py      :     0.009617

  8 H s       :     0.894714  s :     0.894714
      pz      :     0.007657  p :     0.020857
      px      :     0.004156
      py      :     0.009044

  9 H s       :     0.894723  s :     0.894723
      pz      :     0.007660  p :     0.020857
      px      :     0.004156
      py      :     0.009041

 10 H s       :     0.894716  s :     0.894716
      pz      :     0.007132  p :     0.020858
      px      :     0.004106
      py      :     0.009620

 11 H s       :     0.877380  s :     0.877380
      pz      :     0.006695  p :     0.020751
      px      :     0.004326
      py      :     0.009730

 12 H s       :     0.877380  s :     0.877380
      pz      :     0.007184  p :     0.020751
      px      :     0.004429
      py      :     0.009138

 13 H s       :     0.869385  s :     0.869385
      pz      :     0.007785  p :     0.020924
      px      :     0.008961
      py      :     0.004178



                     *******************************
                     * LOEWDIN POPULATION ANALYSIS *
                     *******************************

----------------------
LOEWDIN ATOMIC CHARGES
----------------------
   0 C :   -0.310514
   1 C :   -0.294514
   2 C :   -0.294514
   3 C :   -0.310513
   4 H :    0.115196
   5 H :    0.115112
   6 H :    0.115195
   7 H :    0.129762
   8 H :    0.129763
   9 H :    0.129763
  10 H :    0.129762
  11 H :    0.115194
  12 H :    0.115196
  13 H :    0.115112

-------------------------------
LOEWDIN REDUCED ORBITAL CHARGES
-------------------------------
  0 C s       :     2.827510  s :     2.827510
      pz      :     1.066882  p :     3.186357
      px      :     1.051121
      py      :     1.068354
      dz2     :     0.019651  d :     0.271309
      dxz     :     0.078087
      dyz     :     0.068447
      dx2y2   :     0.067653
      dxy     :     0.037471
      f0      :     0.002932  f :     0.025338
      f+1     :     0.006397
      f-1     :     0.000970
      f+2     :     0.004495
      f-2     :     0.002320
      f+3     :     0.002788
      f-3     :     0.005436

  1 C s       :     2.776629  s :     2.776629
      pz      :     1.025448  p :     3.070325
      px      :     1.021681
      py      :     1.023195
      dz2     :     0.050558  d :     0.407781
      dxz     :     0.094077
      dyz     :     0.111638
      dx2y2   :     0.096901
      dxy     :     0.054606
      f0      :     0.005275  f :     0.039779
      f+1     :     0.010428
      f-1     :     0.001470
      f+2     :     0.005879
      f-2     :     0.005906
      f+3     :     0.003557
      f-3     :     0.007263

  2 C s       :     2.776630  s :     2.776630
      pz      :     1.025448  p :     3.070324
      px      :     1.021681
      py      :     1.023195
      dz2     :     0.050563  d :     0.407781
      dxz     :     0.094078
      dyz     :     0.111631
      dx2y2   :     0.096903
      dxy     :     0.054607
      f0      :     0.005275  f :     0.039779
      f+1     :     0.010428
      f-1     :     0.001471
      f+2     :     0.005879
      f-2     :     0.005906
      f+3     :     0.003558
      f-3     :     0.007262

  3 C s       :     2.827509  s :     2.827509
      pz      :     1.066882  p :     3.186356
      px      :     1.051121
      py      :     1.068353
      dz2     :     0.019657  d :     0.271310
      dxz     :     0.078088
      dyz     :     0.068437
      dx2y2   :     0.067658
      dxy     :     0.037470
      f0      :     0.002931  f :     0.025338
      f+1     :     0.006396
      f-1     :     0.000970
      f+2     :     0.004495
      f-2     :     0.002321
      f+3     :     0.002789
      f-3     :     0.005436

  4 H s       :     0.824873  s :     0.824873
      pz      :     0.020573  p :     0.059931
      px      :     0.012957
      py      :     0.026402

  5 H s       :     0.824943  s :     0.824943
      pz      :     0.023303  p :     0.059945
      px      :     0.023567
      py      :     0.013074

  6 H s       :     0.824873  s :     0.824873
      pz      :     0.019342  p :     0.059932
      px      :     0.012787
      py      :     0.027803

  7 H s       :     0.812667  s :     0.812667
      pz      :     0.018559  p :     0.057571
      px      :     0.012494
      py      :     0.026517

  8 H s       :     0.812666  s :     0.812666
      pz      :     0.019715  p :     0.057570
      px      :     0.012602
      py      :     0.025254

  9 H s       :     0.812666  s :     0.812666
      pz      :     0.019721  p :     0.057570
      px      :     0.012602
      py      :     0.025248

 10 H s       :     0.812668  s :     0.812668
      pz      :     0.018553  p :     0.057571
      px      :     0.012494
      py      :     0.026523

 11 H s       :     0.824874  s :     0.824874
      pz      :     0.019331  p :     0.059932
      px      :     0.012786
      py      :     0.027815

 12 H s       :     0.824872  s :     0.824872
      pz      :     0.020585  p :     0.059932
      px      :     0.012958
      py      :     0.026389

 13 H s       :     0.824943  s :     0.824943
      pz      :     0.023303  p :     0.059945
      px      :     0.023568
      py      :     0.013074



                      *****************************
                      * MAYER POPULATION ANALYSIS *
                      *****************************

  NA   - Mulliken gross atomic population
  ZA   - Total nuclear charge
  QA   - Mulliken gross atomic charge
  VA   - Mayer's total valence
  BVA  - Mayer's bonded valence
  FA   - Mayer's free valence

  ATOM       NA         ZA         QA         VA         BVA        FA
  0 C      6.3261     6.0000    -0.3261     3.9258     3.9258    -0.0000
  1 C      6.1562     6.0000    -0.1562     3.8895     3.8895    -0.0000
  2 C      6.1562     6.0000    -0.1562     3.8896     3.8896    -0.0000
  3 C      6.3260     6.0000    -0.3260     3.9258     3.9258     0.0000
  4 H      0.8981     1.0000     0.1019     0.9750     0.9750     0.0000
  5 H      0.8903     1.0000     0.1097     0.9728     0.9728    -0.0000
  6 H      0.8981     1.0000     0.1019     0.9750     0.9750    -0.0000
  7 H      0.9156     1.0000     0.0844     0.9710     0.9710    -0.0000
  8 H      0.9156     1.0000     0.0844     0.9710     0.9710    -0.0000
  9 H      0.9156     1.0000     0.0844     0.9710     0.9710     0.0000
 10 H      0.9156     1.0000     0.0844     0.9710     0.9710     0.0000
 11 H      0.8981     1.0000     0.1019     0.9750     0.9750     0.0000
 12 H      0.8981     1.0000     0.1019     0.9750     0.9750     0.0000
 13 H      0.8903     1.0000     0.1097     0.9728     0.9728     0.0000

  Mayer bond orders larger than 0.100000
B(  0-C ,  1-C ) :   0.9872 B(  0-C ,  4-H ) :   0.9812 B(  0-C ,  5-H ) :   0.9850 
B(  0-C ,  6-H ) :   0.9812 B(  1-C ,  2-C ) :   0.9908 B(  1-C ,  7-H ) :   0.9723 
B(  1-C ,  8-H ) :   0.9723 B(  2-C ,  3-C ) :   0.9872 B(  2-C ,  9-H ) :   0.9723 
B(  2-C , 10-H ) :   0.9723 B(  3-C , 11-H ) :   0.9812 B(  3-C , 12-H ) :   0.9812 
B(  3-C , 13-H ) :   0.9850 

-------
TIMINGS
-------

Total SCF time: 0 days 0 hours 0 min 53 sec 

Total time                  ....      53.264 sec
Sum of individual times     ....      51.969 sec  ( 97.6%)

SCF preparation             ....       4.558 sec  (  8.6%)
Fock matrix formation       ....      44.932 sec  ( 84.4%)
  Startup                   ....       0.305 sec  (  0.7% of F)
  Split-RI-J                ....       0.828 sec  (  1.8% of F)
  Chain of spheres X        ....      12.661 sec  ( 28.2% of F)
  XC integration            ....      30.602 sec  ( 68.1% of F)
    XC Preparation          ....       0.000 sec  (  0.0% of XC)
    Basis function eval.    ....       0.316 sec  (  1.0% of XC)
    Density eval.           ....       0.233 sec  (  0.8% of XC)
    XC-Functional eval.     ....       0.105 sec  (  0.3% of XC)
    XC-Potential eval.      ....       0.410 sec  (  1.3% of XC)
Diagonalization             ....       0.000 sec  (  0.0%)
Density matrix formation    ....       0.641 sec  (  1.2%)
Total Energy calculation    ....       0.212 sec  (  0.4%)
Population analysis         ....       0.139 sec  (  0.3%)
Orbital Transformation      ....       0.100 sec  (  0.2%)
Orbital Orthonormalization  ....       0.000 sec  (  0.0%)
DIIS solution               ....       1.017 sec  (  1.9%)
SOSCF solution              ....       0.370 sec  (  0.7%)
Finished LeanSCF after  53.4 sec

Maximum memory used throughout the entire LEANSCF-calculation: 17.4 MB


-------------------------------------------------------------------------------
                          DFT DISPERSION CORRECTION                            
                                                                               
                              DFTD3 V3.1  Rev 1                                
                          USING Becke-Johnson damping                          
-------------------------------------------------------------------------------
The WB97X-D3BJ functional is recognized
Active option DFTDOPT                   ...         4   

molecular C6(AA) [au] = 1198.976203 


            DFT-D V3
 parameters
 s6 scaling factor         :     1.0000 
 a1 scaling factor         :     0.0000 
 s8 scaling factor         :     0.2641 
 a2 scaling factor         :     5.4959 
 ad hoc parameters k1-k3   :    16.0000     1.3333    -4.0000 

 Edisp/kcal,au: -9.602967535441  -0.015303301238 
 E6   /kcal   :  -8.163376644 
 E8   /kcal   :  -1.439590892 
 % E8         :  14.991104430 

-------------------------   ----------------
Dispersion correction           -0.015303301
-------------------------   ----------------


-------------------------   --------------------
FINAL SINGLE POINT ENERGY      -158.610035553956
-------------------------   --------------------



           ************************************************************
           *        Program running with 8 parallel MPI-processes     *
           *              working on a common directory               *
           ************************************************************

------------------------------------------------------------------------------
                              ORCA PROPERTY CALCULATIONS
------------------------------------------------------------------------------

GBWName                                 ... butane_deg+179.98°.gbw
Number of atoms                         ...     14
Number of basis functions               ...    184
Max core memory                         ...   1024 MB

Electric properties:
Dipole moment                           ... YES
Quadrupole moment                       ...  NO
Static polarizability (Dipole/Dipole)   ...  NO
Static polarizability (Dipole/Quad.)    ...  NO
Static polarizability (Quad./Quad.)     ...  NO
Static polarizability (Velocity)        ...  NO

Atomic electric properties:
Dipole moment                           ...  NO
Quadrupole moment                       ...  NO
Static polarizability                   ...  NO

Choice of electric origin               ... Center of mass
Position of electric origin             ...    -0.030906     2.698467     0.000001

General magnetic properties:
Magnetizability                         ...  NO

EPR properties:
g-Tensor (aka g-matrix)                 ...  NO
Zero-Field splitting spin-orbit         ...  NO
Zero-field splitting spin-spin          ...  NO
Hyperfine couplings                     ...  NO (   0 nuclei)
Quadrupole couplings                    ...  NO (   0 nuclei)
Contact density                         ...  NO (   0 nuclei)

NMR properties:
Chemical shifts                         ...  NO (   0 nuclei)
Spin-rotation constants                 ...  NO (   0 nuclei)
Spin-spin couplings                     ...  NO (   0 nuclei,    0 pairs)

Choice of magnetic origin               ... GIAO
Position of magnetic origin             ...     0.000000     0.000000     0.000000

Properties with geometric perturbations:
SCF Hessian                             ...  NO
IR spectrum                             ...  NO
VCD spectrum                            ...  NO
X-ray spectroscopy properties:
SCF XES/XAS/RIXS spectra                ...  NO


-------------
DIPOLE MOMENT
-------------

Method             : SCF
Type of density    : Electron Density
Multiplicity       :   1
Irrep              :   0
Energy             :  -158.5947322527184440 Eh
Relativity type    : 
Basis              : AO
                                X                 Y                 Z
Electronic contribution:      0.000008465      -0.000247217       0.000007882
Nuclear contribution   :     -0.000005860       0.000233069      -0.000007311
                        -----------------------------------------
Total Dipole Moment    :      0.000002605      -0.000014148       0.000000571
                        -----------------------------------------
Magnitude (a.u.)       :      0.000014397
Magnitude (Debye)      :      0.000036594



--------------------
Rotational spectrum 
--------------------
 
Rotational constants in cm-1:             0.771074             0.123673             0.115826 
Rotational constants in MHz :         23116.207410          3707.611696          3472.369902 

Dipole components along the rotational axes: 
x,y,z [a.u.] :     0.000002     0.000000    -0.000014 
x,y,z [Debye]:     0.000006     0.000000    -0.000036 

 

Dipole moment calculation done in   0.1 sec 

Maximum memory used throughout the entire PROP-calculation: 8.4 MB

--------------------------------
SUGGESTED CITATIONS FOR THIS RUN
--------------------------------

Below you find a list of papers that are relevant to this ORCA run
We neither can nor want to force you to cite these papers, but we appreciate if you do
You receive ORCA, which is the product of decades of hard work by many enthusiastic individuals, for free
The only thing we kindly ask in return is that you cite our papers,
We deeply appreciate it, if you show your appreciation for ORCA by not just citing the generic ORCA reference.

Please note that relegating all ORCA citations to the supporting information does *not* help us.
SI sections are not indexed - citations you put there will not count into any citation statistics
But we need these citations in order to attract the funding resources that allow us to do what we are doing

Therefore, if you are a happy ORCA user, please consider citing a few of the papers listed below in the main body of your paper

In addition to the list printed below, the program has created the file butane_deg+179.98°.bibtex that contains the list in bibtex format
You can import this file easily into all common literature databanks and citation aid programs


List of essential papers. We consider these as the minimum necessary citations

  1. Neese,F.
     Software update: the ORCA program system, version 5.0
     WIRES Comput. Molec. Sci., 2022 12(1)e1606
     doi.org/10.1002/wcms.1606

List of papers to cite with high priority. The work reported in these papers was absolutely
necessary for this run to complete.
Our perspective: the developers of density functionals and basis sets usually get cited in chemistry papers
Good! But without the algorithms to do something with them, the functionals or basis sets would not do anything.
Hence, in our opinion, the algorithm design and method developments papers are equally worthy of getting cited

  1. Neese,F.
     An improvement of the resolution of the identity approximation for the formation of the Coulomb matrix
     J. Comp. Chem., 2003 24(14)1740-1747
     doi.org/10.1002/jcc.10318
  2. Neese,F.; Wennmohs,F.; Hansen,A.; Becker,U.
     Efficient, approximate and parallel Hartree-Fock and hybrid DFT calculations. A 'chain-of-spheres' algorithm for the Hartree-Fock exchange
     Chem. Phys., 2009 356(1-3)98-109
     doi.org/10.1016/j.chemphys.2008.10.036
  3. Helmich-Paris,B.; de Souza,B.; Neese,F.; Izsák,R.
     An improved chain of spheres for exchange algorithm
     J. Chem. Phys., 2021 155 104109
     doi.org/doi: 10.1063/5.0058766.
  4. Neese,F.
     The SHARK Integral Generation and Digestion System
     J. Comp. Chem., 2022  1-16
     doi.org/10.1002/jcc.26942
  5. Grimme,S.; Antony,J.; Ehrlich,S.; Krieg,H.
     A consistent and accurate ab initio parametrization of density functional dispersion correction (DFT-D) for the 94 elements H-Pu
     J. Chem. Phys., 2010 132 154104-XXXX
     doi.org/10.1063/1.3382344
  6. Grimme,S.; Ehrlich,S.; Goerigk,L.
     Effect of the damping function in dispersion corrected density functional theory
     J. Comput. Chem., 2011 32(7)1456-1465
     doi.org/10.1002/jcc.21759

List of suggested additional citations. These are papers that are important in the 'surrounding' of 
of this run, or papers that preceded the highly important papers. If you like your results we are grateful for a citation.

  1. Izsak,R.; Neese,F.
     An overlap fitted chain of spheres exchange method
     J. Chem. Phys., 2011 135 144105
     doi.org/10.1063/1.3646921
  2. Izsak,R.; Hansen,A.; Neese,F.
     The resolution of identity and chain of spheres approximations for the LPNO-CCSD singles Fock term
     Molec. Phys., 2012 110 2413-2417
     doi.org/10.1080/00268976.2012.687466
  3. Neese,F.
     The ORCA program system
     WIRES Comput. Molec. Sci., 2012 2(1)73-78
     doi.org/10.1002/wcms.81
  4. Izsak,R.; Neese,F.; Klopper,W.
     Robust fitting techniques in the chain of spheres approximation to the Fock exchange: The role of the complementary space
     J. Chem. Phys., 2013 139 
     doi.org/10.1063/1.4819264
  5. Neese,F.
     Software update: the ORCA program system, version 4.0
     WIRES Comput. Molec. Sci., 2018 8(1)1-6
     doi.org/10.1002/wcms.1327
  6. Neese,F.; Wennmohs,F.; Becker,U.; Riplinger,C.
     The ORCA quantum chemistry program package
     J. Chem. Phys., 2020 152 Art. No. L224108
     doi.org/10.1063/5.0004608

List of optional additional citations

  1. Neese,F.
     Approximate second-order SCF convergence for spin unrestricted wavefunctions
     Chem. Phys. Lett., 2000 325(1-3)93-98
     doi.org/10.1016/s0009-2614(00)00662-x

Timings for individual modules:

Sum of individual times          ...       61.840 sec (=   1.031 min)
Startup calculation              ...        4.766 sec (=   0.079 min)   7.7 %
SCF iterations                   ...       55.901 sec (=   0.932 min)  90.4 %
Property calculations            ...        1.174 sec (=   0.020 min)   1.9 %
                             ****ORCA TERMINATED NORMALLY****
TOTAL RUN TIME: 0 days 0 hours 1 minutes 3 seconds 374 msec
